 Entering Gaussian System, Link 0=g16
 Input=DA-R.gjf
 Output=DA-R.log
 Initial command:
 /project/qslin/software/g16/l1.exe "/workfs/qslin/tmp/Gau-30577.inp" -scrdir="/workfs/qslin/tmp/"
 Default is to use a total of  16 processors:
                               16 via shared-memory
                                1 via Linda
 Entering Link 1 = /project/qslin/software/g16/l1.exe PID=     30578.
  
 Copyright (c) 1988,1990,1992,1993,1995,1998,2003,2009,2016,
            Gaussian, Inc.  All Rights Reserved.
  
 This is part of the Gaussian(R) 16 program.  It is based on
 the Gaussian(R) 09 system (copyright 2009, Gaussian, Inc.),
 the Gaussian(R) 03 system (copyright 2003, Gaussian, Inc.),
 the Gaussian(R) 98 system (copyright 1998, Gaussian, Inc.),
 the Gaussian(R) 94 system (copyright 1995, Gaussian, Inc.),
 the Gaussian 92(TM) system (copyright 1992, Gaussian, Inc.),
 the Gaussian 90(TM) system (copyright 1990, Gaussian, Inc.),
 the Gaussian 88(TM) system (copyright 1988, Gaussian, Inc.),
 the Gaussian 86(TM) system (copyright 1986, Carnegie Mellon
 University), and the Gaussian 82(TM) system (copyright 1983,
 Carnegie Mellon University). Gaussian is a federally registered
 trademark of Gaussian, Inc.
  
 This software contains proprietary and confidential information,
 including trade secrets, belonging to Gaussian, Inc.
  
 This software is provided under written license and may be
 used, copied, transmitted, or stored only in accord with that
 written license.
  
 The following legend is applicable only to US Government
 contracts under FAR:
  
                    RESTRICTED RIGHTS LEGEND
  
 Use, reproduction and disclosure by the US Government is
 subject to restrictions as set forth in subparagraphs (a)
 and (c) of the Commercial Computer Software - Restricted
 Rights clause in FAR 52.227-19.
  
 Gaussian, Inc.
 340 Quinnipiac St., Bldg. 40, Wallingford CT 06492
  
  
 ---------------------------------------------------------------
 Warning -- This program may not be used in any manner that
 competes with the business of Gaussian, Inc. or will provide
 assistance to any competitor of Gaussian, Inc.  The licensee
 of this program is prohibited from giving any competitor of
 Gaussian, Inc. access to this program.  By using this program,
 the user acknowledges that Gaussian, Inc. is engaged in the
 business of creating and licensing software in the field of
 computational chemistry and represents and warrants to the
 licensee that it is not a competitor of Gaussian, Inc. and that
 it will not use this program in any manner prohibited above.
 ---------------------------------------------------------------
  

 Cite this work as:
 Gaussian 16, Revision A.03,
 M. J. Frisch, G. W. Trucks, H. B. Schlegel, G. E. Scuseria, 
 M. A. Robb, J. R. Cheeseman, G. Scalmani, V. Barone, 
 G. A. Petersson, H. Nakatsuji, X. Li, M. Caricato, A. V. Marenich, 
 J. Bloino, B. G. Janesko, R. Gomperts, B. Mennucci, H. P. Hratchian, 
 J. V. Ortiz, A. F. Izmaylov, J. L. Sonnenberg, D. Williams-Young, 
 F. Ding, F. Lipparini, F. Egidi, J. Goings, B. Peng, A. Petrone, 
 T. Henderson, D. Ranasinghe, V. G. Zakrzewski, J. Gao, N. Rega, 
 G. Zheng, W. Liang, M. Hada, M. Ehara, K. Toyota, R. Fukuda, 
 J. Hasegawa, M. Ishida, T. Nakajima, Y. Honda, O. Kitao, H. Nakai, 
 T. Vreven, K. Throssell, J. A. Montgomery, Jr., J. E. Peralta, 
 F. Ogliaro, M. J. Bearpark, J. J. Heyd, E. N. Brothers, K. N. Kudin, 
 V. N. Staroverov, T. A. Keith, R. Kobayashi, J. Normand, 
 K. Raghavachari, A. P. Rendell, J. C. Burant, S. S. Iyengar, 
 J. Tomasi, M. Cossi, J. M. Millam, M. Klene, C. Adamo, R. Cammi, 
 J. W. Ochterski, R. L. Martin, K. Morokuma, O. Farkas, 
 J. B. Foresman, and D. J. Fox, Gaussian, Inc., Wallingford CT, 2016.
 
 ******************************************
 Gaussian 16:  ES64L-G16RevA.03 25-Dec-2016
                12-Mar-2020 
 ******************************************
 %nproc=16
 Will use up to   16 processors via shared memory.
 %mem=96GB
 %chk=DA-R.chk
 -------------------------------
 #p BMK/6-31+G(2df,p) Opt=calcfc
 -------------------------------
 1/10=4,18=20,19=15,26=3,38=1/1,3;
 2/9=110,12=2,17=6,18=5,40=1/2;
 3/5=1,6=6,7=114,11=2,25=1,30=1,71=2,74=-34,140=1/1,2,3;
 4//1;
 5/5=2,38=5/2;
 8/6=4,10=90,11=11/1;
 11/6=1,8=1,9=11,15=111,16=1/1,2,10;
 10/6=1,13=1/2;
 6/7=2,8=2,9=2,10=2,28=1/1;
 7/10=1,18=20,25=1/1,2,3,16;
 1/10=4,18=20,19=15,26=3/3(2);
 2/9=110/2;
 99//99;
 2/9=110/2;
 3/5=1,6=6,7=114,11=2,25=1,30=1,71=1,74=-34/1,2,3;
 4/5=5,16=3,69=1/1;
 5/5=2,38=5/2;
 7//1,2,3,16;
 1/18=20,19=15,26=3/3(-5);
 2/9=110/2;
 6/7=2,8=2,9=2,10=2,19=2,28=1/1;
 99/9=1/99;
 Leave Link    1 at Thu Mar 12 13:26:04 2020, MaxMem= 12884901888 cpu:               1.6 elap:               0.1
 (Enter /project/qslin/software/g16/l101.exe)
 ----------------------
 G4(MP2)-6X calculation
 ----------------------
 Symbolic Z-matrix:
 Charge =  0 Multiplicity = 1
 C                    -1.84781  -0.57453  -0.24209 
 C                    -1.39702   0.79005  -0.50999 
 H                    -2.72729  -0.90157  -0.79301 
 H                    -1.59018   1.16818  -1.51201 
 C                    -0.80643   1.59236   0.37326 
 H                    -0.48244   2.58957   0.09913 
 H                    -0.64478   1.28226   1.40048 
 C                    -1.25361  -1.43087   0.58642 
 H                    -0.33898  -1.17359   1.11041 
 H                    -1.655    -2.42421   0.74934 
 C                     2.2193   -0.61603  -0.57822 
 H                     2.78977  -1.49299  -0.86678 
 H                     1.24094  -0.49546  -1.03084 
 C                     2.69026   0.26516   0.29039 
 H                     2.11432   1.1407    0.57229 
 H                     3.66549   0.15027   0.75234 
 
 Add virtual bond connecting atoms H13        and H9         Dist= 5.19D+00.
 Add virtual bond connecting atoms H15        and H7         Dist= 5.45D+00.
 ITRead=  0  0  0  0  0  0  0  0  0  0  0  0  0  0  0  0
 MicOpt= -1 -1 -1 -1 -1 -1 -1 -1 -1 -1 -1 -1 -1 -1 -1 -1
 NAtoms=     16 NQM=       16 NQMF=       0 NMMI=      0 NMMIF=      0
                NMic=       0 NMicF=      0.
                    Isotopes and Nuclear Properties:
 (Nuclear quadrupole moments (NQMom) in fm**2, nuclear magnetic moments (NMagM)
  in nuclear magnetons)

  Atom         1           2           3           4           5           6           7           8           9          10
 IAtWgt=          12          12           1           1          12           1           1          12           1           1
 AtmWgt=  12.0000000  12.0000000   1.0078250   1.0078250  12.0000000   1.0078250   1.0078250  12.0000000   1.0078250   1.0078250
 NucSpn=           0           0           1           1           0           1           1           0           1           1
 AtZEff=  -0.0000000  -0.0000000  -0.0000000  -0.0000000  -0.0000000  -0.0000000  -0.0000000  -0.0000000  -0.0000000  -0.0000000
 NQMom=    0.0000000   0.0000000   0.0000000   0.0000000   0.0000000   0.0000000   0.0000000   0.0000000   0.0000000   0.0000000
 NMagM=    0.0000000   0.0000000   2.7928460   2.7928460   0.0000000   2.7928460   2.7928460   0.0000000   2.7928460   2.7928460
 AtZNuc=   6.0000000   6.0000000   1.0000000   1.0000000   6.0000000   1.0000000   1.0000000   6.0000000   1.0000000   1.0000000

  Atom        11          12          13          14          15          16
 IAtWgt=          12           1           1          12           1           1
 AtmWgt=  12.0000000   1.0078250   1.0078250  12.0000000   1.0078250   1.0078250
 NucSpn=           0           1           1           0           1           1
 AtZEff=  -0.0000000  -0.0000000  -0.0000000  -0.0000000  -0.0000000  -0.0000000
 NQMom=    0.0000000   0.0000000   0.0000000   0.0000000   0.0000000   0.0000000
 NMagM=    0.0000000   2.7928460   2.7928460   0.0000000   2.7928460   2.7928460
 AtZNuc=   6.0000000   1.0000000   1.0000000   6.0000000   1.0000000   1.0000000
 Leave Link  101 at Thu Mar 12 13:26:05 2020, MaxMem= 12884901888 cpu:               5.3 elap:               0.4
 (Enter /project/qslin/software/g16/l103.exe)

 GradGradGradGradGradGradGradGradGradGradGradGradGradGradGradGradGradGrad
 Berny optimization.
 Initialization pass.
                           ----------------------------
                           !    Initial Parameters    !
                           ! (Angstroms and Degrees)  !
 --------------------------                            --------------------------
 ! Name  Definition              Value          Derivative Info.                !
 --------------------------------------------------------------------------------
 ! R1    R(1,2)                  1.4619         calculate D2E/DX2 analytically  !
 ! R2    R(1,3)                  1.0881         calculate D2E/DX2 analytically  !
 ! R3    R(1,8)                  1.3315         calculate D2E/DX2 analytically  !
 ! R4    R(2,4)                  1.0883         calculate D2E/DX2 analytically  !
 ! R5    R(2,5)                  1.3314         calculate D2E/DX2 analytically  !
 ! R6    R(5,6)                  1.0838         calculate D2E/DX2 analytically  !
 ! R7    R(5,7)                  1.0851         calculate D2E/DX2 analytically  !
 ! R8    R(7,15)                 2.8842         calculate D2E/DX2 analytically  !
 ! R9    R(8,9)                  1.085          calculate D2E/DX2 analytically  !
 ! R10   R(8,10)                 1.0837         calculate D2E/DX2 analytically  !
 ! R11   R(9,13)                 2.7461         calculate D2E/DX2 analytically  !
 ! R12   R(11,12)                1.0852         calculate D2E/DX2 analytically  !
 ! R13   R(11,13)                1.0847         calculate D2E/DX2 analytically  !
 ! R14   R(11,14)                1.3239         calculate D2E/DX2 analytically  !
 ! R15   R(14,15)                1.0852         calculate D2E/DX2 analytically  !
 ! R16   R(14,16)                1.0852         calculate D2E/DX2 analytically  !
 ! A1    A(2,1,3)              115.9133         calculate D2E/DX2 analytically  !
 ! A2    A(2,1,8)              125.2239         calculate D2E/DX2 analytically  !
 ! A3    A(3,1,8)              118.8461         calculate D2E/DX2 analytically  !
 ! A4    A(1,2,4)              115.9983         calculate D2E/DX2 analytically  !
 ! A5    A(1,2,5)              125.2895         calculate D2E/DX2 analytically  !
 ! A6    A(4,2,5)              118.6966         calculate D2E/DX2 analytically  !
 ! A7    A(2,5,6)              121.2843         calculate D2E/DX2 analytically  !
 ! A8    A(2,5,7)              121.4585         calculate D2E/DX2 analytically  !
 ! A9    A(6,5,7)              117.2491         calculate D2E/DX2 analytically  !
 ! A10   A(5,7,15)              83.3797         calculate D2E/DX2 analytically  !
 ! A11   A(1,8,9)              121.6133         calculate D2E/DX2 analytically  !
 ! A12   A(1,8,10)             121.1842         calculate D2E/DX2 analytically  !
 ! A13   A(9,8,10)             117.191          calculate D2E/DX2 analytically  !
 ! A14   A(8,9,13)              99.612          calculate D2E/DX2 analytically  !
 ! A15   A(12,11,13)           116.9361         calculate D2E/DX2 analytically  !
 ! A16   A(12,11,14)           121.6886         calculate D2E/DX2 analytically  !
 ! A17   A(13,11,14)           121.3746         calculate D2E/DX2 analytically  !
 ! A18   A(9,13,11)             99.5616         calculate D2E/DX2 analytically  !
 ! A19   A(11,14,15)           121.2394         calculate D2E/DX2 analytically  !
 ! A20   A(11,14,16)           121.9035         calculate D2E/DX2 analytically  !
 ! A21   A(15,14,16)           116.857          calculate D2E/DX2 analytically  !
 ! A22   A(7,15,14)            128.4527         calculate D2E/DX2 analytically  !
 ! D1    D(3,1,2,4)            -30.4713         calculate D2E/DX2 analytically  !
 ! D2    D(3,1,2,5)            148.0691         calculate D2E/DX2 analytically  !
 ! D3    D(8,1,2,4)            148.0173         calculate D2E/DX2 analytically  !
 ! D4    D(8,1,2,5)            -33.4423         calculate D2E/DX2 analytically  !
 ! D5    D(2,1,8,9)             -2.3415         calculate D2E/DX2 analytically  !
 ! D6    D(2,1,8,10)           178.928          calculate D2E/DX2 analytically  !
 ! D7    D(3,1,8,9)            176.1065         calculate D2E/DX2 analytically  !
 ! D8    D(3,1,8,10)            -2.6241         calculate D2E/DX2 analytically  !
 ! D9    D(1,2,5,6)            178.9455         calculate D2E/DX2 analytically  !
 ! D10   D(1,2,5,7)             -2.1128         calculate D2E/DX2 analytically  !
 ! D11   D(4,2,5,6)             -2.5501         calculate D2E/DX2 analytically  !
 ! D12   D(4,2,5,7)            176.3917         calculate D2E/DX2 analytically  !
 ! D13   D(2,5,7,15)           108.1852         calculate D2E/DX2 analytically  !
 ! D14   D(6,5,7,15)           -72.8321         calculate D2E/DX2 analytically  !
 ! D15   D(5,7,15,14)         -100.0251         calculate D2E/DX2 analytically  !
 ! D16   D(1,8,9,13)           -55.5658         calculate D2E/DX2 analytically  !
 ! D17   D(10,8,9,13)          123.2133         calculate D2E/DX2 analytically  !
 ! D18   D(8,9,13,11)         -159.0058         calculate D2E/DX2 analytically  !
 ! D19   D(12,11,13,9)         105.502          calculate D2E/DX2 analytically  !
 ! D20   D(14,11,13,9)         -74.2144         calculate D2E/DX2 analytically  !
 ! D21   D(12,11,14,15)        179.8769         calculate D2E/DX2 analytically  !
 ! D22   D(12,11,14,16)         -0.0335         calculate D2E/DX2 analytically  !
 ! D23   D(13,11,14,15)         -0.4202         calculate D2E/DX2 analytically  !
 ! D24   D(13,11,14,16)        179.6694         calculate D2E/DX2 analytically  !
 ! D25   D(11,14,15,7)          48.7197         calculate D2E/DX2 analytically  !
 ! D26   D(16,14,15,7)        -131.3655         calculate D2E/DX2 analytically  !
 --------------------------------------------------------------------------------
 Trust Radius=3.00D-01 FncErr=1.00D-07 GrdErr=1.00D-06 EigMax=2.50D+02 EigMin=1.00D-04
 Number of steps in this run=     74 maximum allowed number of steps=    100.
 GradGradGradGradGradGradGradGradGradGradGradGradGradGradGradGradGradGrad

 Leave Link  103 at Thu Mar 12 13:26:05 2020, MaxMem= 12884901888 cpu:               0.2 elap:               0.0
 (Enter /project/qslin/software/g16/l202.exe)
                          Input orientation:                          
 ---------------------------------------------------------------------
 Center     Atomic      Atomic             Coordinates (Angstroms)
 Number     Number       Type             X           Y           Z
 ---------------------------------------------------------------------
      1          6           0       -1.847807   -0.574528   -0.242085
      2          6           0       -1.397021    0.790049   -0.509992
      3          1           0       -2.727290   -0.901569   -0.793011
      4          1           0       -1.590181    1.168182   -1.512006
      5          6           0       -0.806431    1.592356    0.373259
      6          1           0       -0.482441    2.589572    0.099129
      7          1           0       -0.644775    1.282259    1.400480
      8          6           0       -1.253612   -1.430865    0.586416
      9          1           0       -0.338981   -1.173589    1.110407
     10          1           0       -1.655001   -2.424214    0.749341
     11          6           0        2.219302   -0.616034   -0.578217
     12          1           0        2.789774   -1.492992   -0.866777
     13          1           0        1.240943   -0.495458   -1.030841
     14          6           0        2.690259    0.265161    0.290394
     15          1           0        2.114321    1.140702    0.572287
     16          1           0        3.665492    0.150271    0.752337
 ---------------------------------------------------------------------
                    Distance matrix (angstroms):
                    1          2          3          4          5
     1  C    0.000000
     2  C    1.461866   0.000000
     3  H    1.088102   2.170550   0.000000
     4  H    2.171660   1.088268   2.468570   0.000000
     5  C    2.481632   1.331400   3.357015   2.085285   0.000000
     6  H    3.462973   2.108499   4.245389   2.417270   1.083770
     7  H    2.755533   2.111409   3.730600   3.064210   1.085116
     8  C    1.331463   2.480955   2.086792   3.357335   3.063539
     9  H    2.112975   2.756994   3.066107   3.731815   2.900405
    10  H    2.107472   3.461786   2.418078   4.245374   4.122420
    11  C    4.081186   3.880659   4.959480   4.309008   3.864887
    12  H    4.768750   4.782136   5.549164   5.165479   4.897933
    13  H    3.188850   2.980380   3.996043   3.318807   3.243795
    14  C    4.645714   4.197855   5.646668   4.731412   3.741010
    15  H    4.393595   3.691044   5.429190   4.250690   2.962161
    16  H    5.648953   5.256599   6.660490   5.812529   4.713958
                    6          7          8          9         10
     6  H    0.000000
     7  H    1.851738   0.000000
     8  C    4.122629   2.897313   0.000000
     9  H    3.899313   2.491755   1.085038   0.000000
    10  H    5.189964   3.896470   1.083697   1.851038   0.000000
    11  C    4.246660   3.965059   3.752526   3.115627   4.476846
    12  H    5.320498   4.963728   4.297045   3.714887   4.820273
    13  H    3.710026   3.553524   3.116619   2.746082   3.908406
    14  C    3.937702   3.659130   4.303284   3.452350   5.130756
    15  H    3.011026   2.884190   4.237467   3.415290   5.191123
    16  H    4.856153   4.503320   5.169633   4.232803   5.910637
                   11         12         13         14         15
    11  C    0.000000
    12  H    1.085247   0.000000
    13  H    1.084709   1.849559   0.000000
    14  C    1.323930   2.107143   2.103502   0.000000
    15  H    2.102570   3.076278   2.451495   1.085237   0.000000
    16  H    2.109280   2.467534   3.078170   1.085205   1.849190
                   16
    16  H    0.000000
 Stoichiometry    C6H10
 Framework group  C1[X(C6H10)]
 Deg. of freedom    42
 Full point group                 C1      NOp   1
 Largest Abelian subgroup         C1      NOp   1
 Largest concise Abelian subgroup C1      NOp   1
                         Standard orientation:                         
 ---------------------------------------------------------------------
 Center     Atomic      Atomic             Coordinates (Angstroms)
 Number     Number       Type             X           Y           Z
 ---------------------------------------------------------------------
      1          6           0        1.847807   -0.574528    0.242085
      2          6           0        1.397021    0.790049    0.509992
      3          1           0        2.727290   -0.901569    0.793011
      4          1           0        1.590181    1.168182    1.512006
      5          6           0        0.806431    1.592356   -0.373259
      6          1           0        0.482441    2.589572   -0.099129
      7          1           0        0.644775    1.282259   -1.400480
      8          6           0        1.253612   -1.430865   -0.586416
      9          1           0        0.338981   -1.173589   -1.110407
     10          1           0        1.655001   -2.424214   -0.749341
     11          6           0       -2.219302   -0.616034    0.578217
     12          1           0       -2.789774   -1.492992    0.866777
     13          1           0       -1.240943   -0.495458    1.030841
     14          6           0       -2.690259    0.265161   -0.290394
     15          1           0       -2.114321    1.140702   -0.572287
     16          1           0       -3.665492    0.150271   -0.752337
 ---------------------------------------------------------------------
 Rotational constants (GHZ):           4.2948157           1.6730687           1.3601028
 Leave Link  202 at Thu Mar 12 13:26:05 2020, MaxMem= 12884901888 cpu:               0.1 elap:               0.0
 (Enter /project/qslin/software/g16/l301.exe)
 Standard basis: 6-31+G(2df,p) (6D, 7F)
 Ernie: Thresh=  0.10000D-02 Tol=  0.10000D-05 Strict=F.
 There are   260 symmetry adapted cartesian basis functions of A   symmetry.
 There are   242 symmetry adapted basis functions of A   symmetry.
   242 basis functions,   358 primitive gaussians,   260 cartesian basis functions
    23 alpha electrons       23 beta electrons
       nuclear repulsion energy       201.1672318019 Hartrees.
 IExCor= 3226 DFT=T Ex+Corr=BMK ExCW=0 ScaHFX=  0.420000
 ScaDFX=  1.000000  1.000000  1.000000  1.000000 ScalE2=  1.000000  1.000000
 IRadAn=      5 IRanWt=     -1 IRanGd=            0 ICorTp=0 IEmpDi=  4
 NAtoms=   16 NActive=   16 NUniq=   16 SFac= 1.00D+00 NAtFMM=   60 NAOKFM=F Big=F
 Integral buffers will be    131072 words long.
 Raffenetti 2 integral format.
 Two-electron integral symmetry is turned on.
 Leave Link  301 at Thu Mar 12 13:26:05 2020, MaxMem= 12884901888 cpu:               0.7 elap:               0.1
 (Enter /project/qslin/software/g16/l302.exe)
 NPDir=0 NMtPBC=     1 NCelOv=     1 NCel=       1 NClECP=     1 NCelD=      1
         NCelK=      1 NCelE2=     1 NClLst=     1 CellRange=     0.0.
 One-electron integrals computed using PRISM.
 One-electron integral symmetry used in STVInt
 NBasis=   242 RedAO= T EigKep=  3.79D-05  NBF=   242
 NBsUse=   242 1.00D-06 EigRej= -1.00D+00 NBFU=   242
 Precomputing XC quadrature grid using
 IXCGrd= 4 IRadAn=           5 IRanWt=          -1 IRanGd=           0 AccXCQ= 0.00D+00.
 Generated NRdTot=       0 NPtTot=           0 NUsed=           0 NTot=          32
 NSgBfM=   260   260   260   260   260 MxSgAt=    16 MxSgA2=    16.
 Leave Link  302 at Thu Mar 12 13:26:05 2020, MaxMem= 12884901888 cpu:               3.4 elap:               0.2
 (Enter /project/qslin/software/g16/l303.exe)
 DipDrv:  MaxL=1.
 Leave Link  303 at Thu Mar 12 13:26:05 2020, MaxMem= 12884901888 cpu:               0.6 elap:               0.1
 (Enter /project/qslin/software/g16/l401.exe)
 ExpMin= 4.38D-02 ExpMax= 3.05D+03 ExpMxC= 4.57D+02 IAcc=3 IRadAn=         5 AccDes= 0.00D+00
 Harris functional with IExCor= 1009 and IRadAn=       5 diagonalized for initial guess.
 HarFok:  IExCor= 1009 AccDes= 0.00D+00 IRadAn=         5 IDoV= 1 UseB2=F ITyADJ=14
 ICtDFT=  3500011 ScaDFX=  1.000000  1.000000  1.000000  1.000000
 FoFCou: FMM=F IPFlag=           0 FMFlag=      100000 FMFlg1=           0
         NFxFlg=           0 DoJE=T BraDBF=F KetDBF=T FulRan=T
         wScrn=  0.000000 ICntrl=       500 IOpCl=  0 I1Cent=   200000004 NGrid=           0
         NMat0=    1 NMatS0=      1 NMatT0=    0 NMatD0=    1 NMtDS0=    0 NMtDT0=    0
 Petite list used in FoFCou.
 Harris En= -234.452242852225    
 JPrj=0 DoOrth=F DoCkMO=F.
 Leave Link  401 at Thu Mar 12 13:26:06 2020, MaxMem= 12884901888 cpu:              10.3 elap:               0.7
 (Enter /project/qslin/software/g16/l502.exe)
 Integral symmetry usage will be decided dynamically.
 Closed shell SCF:
 Using DIIS extrapolation, IDIIS=  1040.
 NGot= 12884901888 LenX= 12884760018 LenY= 12884691977
 Requested convergence on RMS density matrix=1.00D-08 within 128 cycles.
 Requested convergence on MAX density matrix=1.00D-06.
 Requested convergence on             energy=1.00D-06.
 No special actions if energy rises.
 Fock matrices will be formed incrementally for  20 cycles.

 Cycle   1  Pass 1  IDiag  1:
 FoFJK:  IHMeth= 1 ICntrl=       0 DoSepK=F KAlg= 0 I1Cent=           0 FoldK=F
 IRaf= 950000000 NMat=       1 IRICut=       1 DoRegI=T DoRafI=F ISym2E= 0 IDoP0=0 IntGTp=1.
 FoFCou: FMM=F IPFlag=           0 FMFlag=      100000 FMFlg1=           0
         NFxFlg=           0 DoJE=F BraDBF=F KetDBF=F FulRan=T
         wScrn=  0.000000 ICntrl=         0 IOpCl=  0 I1Cent=           0 NGrid=           0
         NMat0=    1 NMatS0=      1 NMatT0=    0 NMatD0=    1 NMtDS0=    0 NMtDT0=    0
 Symmetry not used in FoFCou.
 E= -234.189830301264    
 DIIS: error= 2.11D-02 at cycle   1 NSaved=   1.
 NSaved= 1 IEnMin= 1 EnMin= -234.189830301264     IErMin= 1 ErrMin= 2.11D-02
 ErrMax= 2.11D-02  0.00D+00 EMaxC= 1.00D-01 BMatC= 1.98D-01 BMatP= 1.98D-01
 IDIUse=3 WtCom= 7.89D-01 WtEn= 2.11D-01
 Coeff-Com:  0.100D+01
 Coeff-En:   0.100D+01
 Coeff:      0.100D+01
 Gap=     0.264 Goal=   None    Shift=    0.000
 GapD=    0.264 DampG=1.000 DampE=0.500 DampFc=0.5000 IDamp=-1.
 Damping current iteration by 5.00D-01
 RMSDP=4.21D-03 MaxDP=9.38D-02              OVMax= 1.75D-01

 Cycle   2  Pass 1  IDiag  1:
 RMSU=  2.01D-03    CP:  9.55D-01
 E= -234.305546601258     Delta-E=       -0.115716299994 Rises=F Damp=T
 DIIS: error= 4.07D-03 at cycle   2 NSaved=   2.
 NSaved= 2 IEnMin= 2 EnMin= -234.305546601258     IErMin= 2 ErrMin= 4.07D-03
 ErrMax= 4.07D-03  0.00D+00 EMaxC= 1.00D-01 BMatC= 8.02D-03 BMatP= 1.98D-01
 IDIUse=3 WtCom= 9.59D-01 WtEn= 4.07D-02
 Coeff-Com: -0.938D-01 0.109D+01
 Coeff-En:   0.000D+00 0.100D+01
 Coeff:     -0.899D-01 0.109D+01
 Gap=     0.331 Goal=   None    Shift=    0.000
 RMSDP=1.66D-03 MaxDP=1.08D-01 DE=-1.16D-01 OVMax= 8.23D-02

 Cycle   3  Pass 1  IDiag  1:
 RMSU=  1.53D-03    CP:  9.31D-01  1.28D+00
 E= -234.411831989068     Delta-E=       -0.106285387810 Rises=F Damp=F
 DIIS: error= 1.18D-03 at cycle   3 NSaved=   3.
 NSaved= 3 IEnMin= 3 EnMin= -234.411831989068     IErMin= 3 ErrMin= 1.18D-03
 ErrMax= 1.18D-03  0.00D+00 EMaxC= 1.00D-01 BMatC= 3.82D-04 BMatP= 8.02D-03
 IDIUse=3 WtCom= 9.88D-01 WtEn= 1.18D-02
 Coeff-Com: -0.299D-01 0.122D+00 0.907D+00
 Coeff-En:   0.000D+00 0.000D+00 0.100D+01
 Coeff:     -0.295D-01 0.121D+00 0.909D+00
 Gap=     0.266 Goal=   None    Shift=    0.000
 RMSDP=2.91D-04 MaxDP=1.98D-02 DE=-1.06D-01 OVMax= 6.38D-03

 Cycle   4  Pass 1  IDiag  1:
 RMSU=  2.83D-04    CP:  9.27D-01  1.30D+00  1.01D+00
 E= -234.412119495172     Delta-E=       -0.000287506103 Rises=F Damp=F
 DIIS: error= 5.70D-04 at cycle   4 NSaved=   4.
 NSaved= 4 IEnMin= 4 EnMin= -234.412119495172     IErMin= 4 ErrMin= 5.70D-04
 ErrMax= 5.70D-04  0.00D+00 EMaxC= 1.00D-01 BMatC= 9.44D-05 BMatP= 3.82D-04
 IDIUse=3 WtCom= 9.94D-01 WtEn= 5.70D-03
 Coeff-Com: -0.882D-02 0.193D-01 0.352D+00 0.638D+00
 Coeff-En:   0.000D+00 0.000D+00 0.441D-01 0.956D+00
 Coeff:     -0.877D-02 0.192D-01 0.350D+00 0.640D+00
 Gap=     0.266 Goal=   None    Shift=    0.000
 RMSDP=8.03D-05 MaxDP=4.87D-03 DE=-2.88D-04 OVMax= 3.96D-03

 Cycle   5  Pass 1  IDiag  1:
 RMSU=  5.93D-05    CP:  9.27D-01  1.29D+00  1.02D+00  8.20D-01
 E= -234.412194934748     Delta-E=       -0.000075439576 Rises=F Damp=F
 DIIS: error= 2.69D-04 at cycle   5 NSaved=   5.
 NSaved= 5 IEnMin= 5 EnMin= -234.412194934748     IErMin= 5 ErrMin= 2.69D-04
 ErrMax= 2.69D-04  0.00D+00 EMaxC= 1.00D-01 BMatC= 1.85D-05 BMatP= 9.44D-05
 IDIUse=3 WtCom= 9.97D-01 WtEn= 2.69D-03
 Coeff-Com: -0.265D-02 0.234D-02 0.129D+00 0.356D+00 0.515D+00
 Coeff-En:   0.000D+00 0.000D+00 0.000D+00 0.113D+00 0.887D+00
 Coeff:     -0.265D-02 0.234D-02 0.129D+00 0.356D+00 0.516D+00
 Gap=     0.266 Goal=   None    Shift=    0.000
 RMSDP=2.72D-05 MaxDP=1.05D-03 DE=-7.54D-05 OVMax= 1.83D-03

 Cycle   6  Pass 1  IDiag  1:
 RMSU=  2.53D-05    CP:  9.27D-01  1.29D+00  1.03D+00  8.16D-01  9.06D-01
 E= -234.412214119550     Delta-E=       -0.000019184802 Rises=F Damp=F
 DIIS: error= 4.06D-05 at cycle   6 NSaved=   6.
 NSaved= 6 IEnMin= 6 EnMin= -234.412214119550     IErMin= 6 ErrMin= 4.06D-05
 ErrMax= 4.06D-05  0.00D+00 EMaxC= 1.00D-01 BMatC= 3.20D-07 BMatP= 1.85D-05
 IDIUse=1 WtCom= 1.00D+00 WtEn= 0.00D+00
 Coeff-Com:  0.205D-03-0.925D-03-0.406D-02 0.216D-01 0.128D+00 0.856D+00
 Coeff:      0.205D-03-0.925D-03-0.406D-02 0.216D-01 0.128D+00 0.856D+00
 Gap=     0.266 Goal=   None    Shift=    0.000
 RMSDP=5.87D-06 MaxDP=2.80D-04 DE=-1.92D-05 OVMax= 3.83D-04

 Cycle   7  Pass 1  IDiag  1:
 RMSU=  3.99D-06    CP:  9.27D-01  1.29D+00  1.03D+00  8.27D-01  9.49D-01
                    CP:  9.57D-01
 E= -234.412214504417     Delta-E=       -0.000000384867 Rises=F Damp=F
 DIIS: error= 1.03D-05 at cycle   7 NSaved=   7.
 NSaved= 7 IEnMin= 7 EnMin= -234.412214504417     IErMin= 7 ErrMin= 1.03D-05
 ErrMax= 1.03D-05  0.00D+00 EMaxC= 1.00D-01 BMatC= 3.07D-08 BMatP= 3.20D-07
 IDIUse=1 WtCom= 1.00D+00 WtEn= 0.00D+00
 Coeff-Com:  0.214D-03-0.518D-03-0.775D-02-0.836D-02 0.220D-01 0.322D+00
 Coeff-Com:  0.673D+00
 Coeff:      0.214D-03-0.518D-03-0.775D-02-0.836D-02 0.220D-01 0.322D+00
 Coeff:      0.673D+00
 Gap=     0.266 Goal=   None    Shift=    0.000
 RMSDP=1.75D-06 MaxDP=7.05D-05 DE=-3.85D-07 OVMax= 9.33D-05

 Cycle   8  Pass 1  IDiag  1:
 RMSU=  1.19D-06    CP:  9.27D-01  1.29D+00  1.03D+00  8.26D-01  9.59D-01
                    CP:  9.94D-01  1.01D+00
 E= -234.412214533394     Delta-E=       -0.000000028977 Rises=F Damp=F
 DIIS: error= 6.86D-06 at cycle   8 NSaved=   8.
 NSaved= 8 IEnMin= 8 EnMin= -234.412214533394     IErMin= 8 ErrMin= 6.86D-06
 ErrMax= 6.86D-06  0.00D+00 EMaxC= 1.00D-01 BMatC= 5.87D-09 BMatP= 3.07D-08
 IDIUse=1 WtCom= 1.00D+00 WtEn= 0.00D+00
 Coeff-Com:  0.848D-04-0.150D-03-0.354D-02-0.720D-02-0.587D-02 0.583D-01
 Coeff-Com:  0.333D+00 0.625D+00
 Coeff:      0.848D-04-0.150D-03-0.354D-02-0.720D-02-0.587D-02 0.583D-01
 Coeff:      0.333D+00 0.625D+00
 Gap=     0.266 Goal=   None    Shift=    0.000
 RMSDP=6.14D-07 MaxDP=2.12D-05 DE=-2.90D-08 OVMax= 4.42D-05

 Cycle   9  Pass 1  IDiag  1:
 RMSU=  3.70D-07    CP:  9.27D-01  1.29D+00  1.03D+00  8.26D-01  9.62D-01
                    CP:  1.01D+00  1.07D+00  9.18D-01
 E= -234.412214539888     Delta-E=       -0.000000006494 Rises=F Damp=F
 DIIS: error= 1.06D-06 at cycle   9 NSaved=   9.
 NSaved= 9 IEnMin= 9 EnMin= -234.412214539888     IErMin= 9 ErrMin= 1.06D-06
 ErrMax= 1.06D-06  0.00D+00 EMaxC= 1.00D-01 BMatC= 2.47D-10 BMatP= 5.87D-09
 IDIUse=1 WtCom= 1.00D+00 WtEn= 0.00D+00
 Coeff-Com:  0.894D-05-0.571D-05-0.475D-03-0.154D-02-0.384D-02-0.859D-02
 Coeff-Com:  0.393D-01 0.194D+00 0.781D+00
 Coeff:      0.894D-05-0.571D-05-0.475D-03-0.154D-02-0.384D-02-0.859D-02
 Coeff:      0.393D-01 0.194D+00 0.781D+00
 Gap=     0.266 Goal=   None    Shift=    0.000
 RMSDP=2.14D-07 MaxDP=7.89D-06 DE=-6.49D-09 OVMax= 7.71D-06

 Cycle  10  Pass 1  IDiag  1:
 RMSU=  1.13D-07    CP:  9.27D-01  1.29D+00  1.03D+00  8.26D-01  9.62D-01
                    CP:  1.01D+00  1.10D+00  1.00D+00  1.03D+00
 E= -234.412214540186     Delta-E=       -0.000000000298 Rises=F Damp=F
 DIIS: error= 2.36D-07 at cycle  10 NSaved=  10.
 NSaved=10 IEnMin=10 EnMin= -234.412214540186     IErMin=10 ErrMin= 2.36D-07
 ErrMax= 2.36D-07  0.00D+00 EMaxC= 1.00D-01 BMatC= 3.30D-11 BMatP= 2.47D-10
 IDIUse=1 WtCom= 1.00D+00 WtEn= 0.00D+00
 Coeff-Com: -0.508D-05 0.136D-04 0.165D-03 0.120D-03-0.882D-03-0.858D-02
 Coeff-Com: -0.191D-01 0.122D-01 0.307D+00 0.710D+00
 Coeff:     -0.508D-05 0.136D-04 0.165D-03 0.120D-03-0.882D-03-0.858D-02
 Coeff:     -0.191D-01 0.122D-01 0.307D+00 0.710D+00
 Gap=     0.266 Goal=   None    Shift=    0.000
 RMSDP=6.25D-08 MaxDP=2.17D-06 DE=-2.98D-10 OVMax= 3.54D-06

 Cycle  11  Pass 1  IDiag  1:
 RMSU=  3.90D-08    CP:  9.27D-01  1.29D+00  1.03D+00  8.26D-01  9.62D-01
                    CP:  1.01D+00  1.11D+00  1.03D+00  1.08D+00  9.89D-01
 E= -234.412214540224     Delta-E=       -0.000000000038 Rises=F Damp=F
 DIIS: error= 7.14D-08 at cycle  11 NSaved=  11.
 NSaved=11 IEnMin=11 EnMin= -234.412214540224     IErMin=11 ErrMin= 7.14D-08
 ErrMax= 7.14D-08  0.00D+00 EMaxC= 1.00D-01 BMatC= 1.89D-12 BMatP= 3.30D-11
 IDIUse=1 WtCom= 1.00D+00 WtEn= 0.00D+00
 Coeff-Com: -0.213D-05 0.458D-05 0.810D-04 0.132D-03-0.626D-04-0.206D-02
 Coeff-Com: -0.869D-02-0.802D-02 0.466D-01 0.228D+00 0.744D+00
 Coeff:     -0.213D-05 0.458D-05 0.810D-04 0.132D-03-0.626D-04-0.206D-02
 Coeff:     -0.869D-02-0.802D-02 0.466D-01 0.228D+00 0.744D+00
 Gap=     0.266 Goal=   None    Shift=    0.000
 RMSDP=2.06D-08 MaxDP=1.05D-06 DE=-3.79D-11 OVMax= 1.07D-06

 Cycle  12  Pass 1  IDiag  1:
 RMSU=  1.18D-08    CP:  9.27D-01  1.29D+00  1.03D+00  8.26D-01  9.62D-01
                    CP:  1.01D+00  1.11D+00  1.03D+00  1.10D+00  1.05D+00
                    CP:  1.01D+00
 E= -234.412214540227     Delta-E=       -0.000000000003 Rises=F Damp=F
 DIIS: error= 3.76D-08 at cycle  12 NSaved=  12.
 NSaved=12 IEnMin=12 EnMin= -234.412214540227     IErMin=12 ErrMin= 3.76D-08
 ErrMax= 3.76D-08  0.00D+00 EMaxC= 1.00D-01 BMatC= 4.54D-13 BMatP= 1.89D-12
 IDIUse=1 WtCom= 1.00D+00 WtEn= 0.00D+00
 Coeff-Com: -0.468D-06 0.668D-06 0.201D-04 0.496D-04 0.604D-04 0.333D-04
 Coeff-Com: -0.197D-02-0.518D-02-0.144D-01 0.274D-01 0.363D+00 0.631D+00
 Coeff:     -0.468D-06 0.668D-06 0.201D-04 0.496D-04 0.604D-04 0.333D-04
 Coeff:     -0.197D-02-0.518D-02-0.144D-01 0.274D-01 0.363D+00 0.631D+00
 Gap=     0.266 Goal=   None    Shift=    0.000
 RMSDP=5.22D-09 MaxDP=2.23D-07 DE=-2.90D-12 OVMax= 4.31D-07

 SCF Done:  E(RBMK) =  -234.412214540     A.U. after   12 cycles
            NFock= 12  Conv=0.52D-08     -V/T= 2.0092
 KE= 2.322650644035D+02 PE=-9.439771068835D+02 EE= 2.761325961378D+02
 Leave Link  502 at Thu Mar 12 13:26:23 2020, MaxMem= 12884901888 cpu:             258.8 elap:              16.3
 (Enter /project/qslin/software/g16/l801.exe)
 DoSCS=F DFT=T ScalE2(SS,OS)=  1.000000  1.000000
 Range of M.O.s used for correlation:     1   242
 NBasis=   242 NAE=    23 NBE=    23 NFC=     0 NFV=     0
 NROrb=    242 NOA=    23 NOB=    23 NVA=   219 NVB=   219

 **** Warning!!: The largest alpha MO coefficient is  0.40982766D+02

 Leave Link  801 at Thu Mar 12 13:26:23 2020, MaxMem= 12884901888 cpu:               0.9 elap:               0.1
 (Enter /project/qslin/software/g16/l1101.exe)
 Using compressed storage, NAtomX=    16.
 Will process     17 centers per pass.
 Leave Link 1101 at Thu Mar 12 13:26:23 2020, MaxMem= 12884901888 cpu:               4.6 elap:               0.3
 (Enter /project/qslin/software/g16/l1102.exe)
 Symmetrizing basis deriv contribution to polar:
 IMax=3 JMax=2 DiffMx= 0.00D+00
 Leave Link 1102 at Thu Mar 12 13:26:24 2020, MaxMem= 12884901888 cpu:               0.9 elap:               0.1
 (Enter /project/qslin/software/g16/l1110.exe)
 Forming Gx(P) for the SCF density, NAtomX=    16.
 Integral derivatives from FoFJK, PRISM(SPDF).
 Do as many integral derivatives as possible in FoFJK.
 G2DrvN: MDV=   12884900632.
 G2DrvN: will do    17 centers at a time, making    1 passes.
 Calling FoFCou, ICntrl=  3107 FMM=F I1Cent=   0 AccDes= 0.00D+00.
 FoFJK:  IHMeth= 1 ICntrl=    3107 DoSepK=F KAlg= 0 I1Cent=           0 FoldK=F
 IRaf=         0 NMat=       1 IRICut=       1 DoRegI=T DoRafI=F ISym2E= 0 IDoP0=0 IntGTp=1.
 FoFCou: FMM=F IPFlag=           0 FMFlag=      100000 FMFlg1=           0
         NFxFlg=           0 DoJE=F BraDBF=F KetDBF=F FulRan=T
         wScrn=  0.000000 ICntrl=      3107 IOpCl=  0 I1Cent=           0 NGrid=           0
         NMat0=    1 NMatS0=      1 NMatT0=    0 NMatD0=    1 NMtDS0=    0 NMtDT0=    0
 Symmetry not used in FoFCou.
 End of G2Drv F.D. properties file   721 does not exist.
 End of G2Drv F.D. properties file   722 does not exist.
 End of G2Drv F.D. properties file   788 does not exist.
 Leave Link 1110 at Thu Mar 12 13:26:57 2020, MaxMem= 12884901888 cpu:             516.6 elap:              32.7
 (Enter /project/qslin/software/g16/l1002.exe)
 Minotr:  Closed shell wavefunction.
          IDoAtm=1111111111111111
          Direct CPHF calculation.
          Differentiating once with respect to nuclear coordinates.
          Requested convergence is 1.0D-08 RMS, and 1.0D-07 maximum.
          Secondary convergence is 1.0D-12 RMS, and 1.0D-12 maximum.
          NewPWx=T KeepS1=F KeepF1=F KeepIn=T MapXYZ=F SortEE=F KeepMc=T.
         4881 words used for storage of precomputed grid.
 Keep R1 ints in memory in canonical form, NReq=449713921.
 FoFCou: FMM=F IPFlag=           0 FMFlag=           0 FMFlg1=           0
         NFxFlg=           0 DoJE=F BraDBF=F KetDBF=F FulRan=T
         wScrn=  0.000000 ICntrl=       600 IOpCl=  0 I1Cent=           0 NGrid=           0
         NMat0=    1 NMatS0=  29403 NMatT0=    0 NMatD0=    1 NMtDS0=    0 NMtDT0=    0
 Symmetry not used in FoFCou.
 Two-electron integral symmetry not used.
          MDV=   12884901888 using IRadAn=       1.
          Solving linear equations simultaneously, MaxMat=       0.
          There are    51 degrees of freedom in the 1st order CPHF.  IDoFFX=6 NUNeed=     0.
     45 vectors produced by pass  0 Test12= 9.88D-15 1.96D-09 XBig12= 8.85D-02 9.52D-02.
 AX will form    45 AO Fock derivatives at one time.
     45 vectors produced by pass  1 Test12= 9.88D-15 1.96D-09 XBig12= 8.10D-03 2.68D-02.
     45 vectors produced by pass  2 Test12= 9.88D-15 1.96D-09 XBig12= 2.07D-04 3.40D-03.
     45 vectors produced by pass  3 Test12= 9.88D-15 1.96D-09 XBig12= 1.40D-06 1.76D-04.
     45 vectors produced by pass  4 Test12= 9.88D-15 1.96D-09 XBig12= 7.03D-09 8.57D-06.
     45 vectors produced by pass  5 Test12= 9.88D-15 1.96D-09 XBig12= 2.62D-11 5.52D-07.
     24 vectors produced by pass  6 Test12= 9.88D-15 1.96D-09 XBig12= 9.65D-14 3.25D-08.
 InvSVY:  IOpt=1 It=  1 EMax= 4.44D-16
 Solved reduced A of dimension   294 with    51 vectors.
 End of Minotr F.D. properties file   721 does not exist.
 End of Minotr F.D. properties file   722 does not exist.
 End of Minotr F.D. properties file   788 does not exist.
 Leave Link 1002 at Thu Mar 12 13:27:33 2020, MaxMem= 12884901888 cpu:             563.7 elap:              35.5
 (Enter /project/qslin/software/g16/l601.exe)
 Copying SCF densities to generalized density rwf, IOpCl= 0 IROHF=0.

 **********************************************************************

            Population analysis using the SCF density.

 **********************************************************************

 Orbital symmetries:
       Occupied  (A) (A) (A) (A) (A) (A) (A) (A) (A) (A) (A) (A)
                 (A) (A) (A) (A) (A) (A) (A) (A) (A) (A) (A)
       Virtual   (A) (A) (A) (A) (A) (A) (A) (A) (A) (A) (A) (A)
                 (A) (A) (A) (A) (A) (A) (A) (A) (A) (A) (A) (A)
                 (A) (A) (A) (A) (A) (A) (A) (A) (A) (A) (A) (A)
                 (A) (A) (A) (A) (A) (A) (A) (A) (A) (A) (A) (A)
                 (A) (A) (A) (A) (A) (A) (A) (A) (A) (A) (A) (A)
                 (A) (A) (A) (A) (A) (A) (A) (A) (A) (A) (A) (A)
                 (A) (A) (A) (A) (A) (A) (A) (A) (A) (A) (A) (A)
                 (A) (A) (A) (A) (A) (A) (A) (A) (A) (A) (A) (A)
                 (A) (A) (A) (A) (A) (A) (A) (A) (A) (A) (A) (A)
                 (A) (A) (A) (A) (A) (A) (A) (A) (A) (A) (A) (A)
                 (A) (A) (A) (A) (A) (A) (A) (A) (A) (A) (A) (A)
                 (A) (A) (A) (A) (A) (A) (A) (A) (A) (A) (A) (A)
                 (A) (A) (A) (A) (A) (A) (A) (A) (A) (A) (A) (A)
                 (A) (A) (A) (A) (A) (A) (A) (A) (A) (A) (A) (A)
                 (A) (A) (A) (A) (A) (A) (A) (A) (A) (A) (A) (A)
                 (A) (A) (A) (A) (A) (A) (A) (A) (A) (A) (A) (A)
                 (A) (A) (A) (A) (A) (A) (A) (A) (A) (A) (A) (A)
                 (A) (A) (A) (A) (A) (A) (A) (A) (A) (A) (A) (A)
                 (A) (A) (A)
 The electronic state is 1-A.
 Alpha  occ. eigenvalues --  -10.48838 -10.48697 -10.47914 -10.47737 -10.47538
 Alpha  occ. eigenvalues --  -10.47397  -0.88348  -0.82903  -0.80016  -0.68293
 Alpha  occ. eigenvalues --   -0.63540  -0.58751  -0.54611  -0.51726  -0.48501
 Alpha  occ. eigenvalues --   -0.47400  -0.46042  -0.41412  -0.39296  -0.39006
 Alpha  occ. eigenvalues --   -0.35619  -0.31040  -0.27683
 Alpha virt. eigenvalues --   -0.01047   0.03110   0.05097   0.05389   0.06037
 Alpha virt. eigenvalues --    0.07107   0.07302   0.07987   0.09111   0.10699
 Alpha virt. eigenvalues --    0.11233   0.12112   0.13095   0.13659   0.14108
 Alpha virt. eigenvalues --    0.14502   0.14968   0.15452   0.16908   0.17803
 Alpha virt. eigenvalues --    0.18359   0.18700   0.19570   0.20558   0.21005
 Alpha virt. eigenvalues --    0.22155   0.23727   0.24797   0.25593   0.27272
 Alpha virt. eigenvalues --    0.27486   0.29336   0.30991   0.33899   0.34387
 Alpha virt. eigenvalues --    0.36784   0.38146   0.41489   0.41703   0.45287
 Alpha virt. eigenvalues --    0.47269   0.57871   0.60740   0.64301   0.64700
 Alpha virt. eigenvalues --    0.68038   0.69948   0.71108   0.71730   0.72717
 Alpha virt. eigenvalues --    0.72975   0.74809   0.75429   0.77070   0.78068
 Alpha virt. eigenvalues --    0.78807   0.79565   0.81155   0.82288   0.84672
 Alpha virt. eigenvalues --    0.86321   0.87503   0.88811   0.90695   0.93545
 Alpha virt. eigenvalues --    0.95515   0.96489   0.97360   0.97701   0.97973
 Alpha virt. eigenvalues --    0.99107   1.00542   1.01541   1.03161   1.05441
 Alpha virt. eigenvalues --    1.08477   1.09925   1.12100   1.12999   1.17057
 Alpha virt. eigenvalues --    1.19354   1.22601   1.25724   1.30475   1.32620
 Alpha virt. eigenvalues --    1.43131   1.48043   1.51637   1.56432   1.57373
 Alpha virt. eigenvalues --    1.72206   1.73569   1.74236   1.75798   1.77726
 Alpha virt. eigenvalues --    1.79754   1.81027   1.81837   1.86042   1.88092
 Alpha virt. eigenvalues --    1.91135   1.91886   1.95319   2.01431   2.15216
 Alpha virt. eigenvalues --    2.21378   2.23448   2.28477   2.29406   2.29844
 Alpha virt. eigenvalues --    2.33105   2.35141   2.36076   2.42015   2.46118
 Alpha virt. eigenvalues --    2.52803   2.58015   2.72867   2.74851   2.76820
 Alpha virt. eigenvalues --    2.81736   2.85860   2.88293   2.91161   2.92271
 Alpha virt. eigenvalues --    2.93041   2.93441   2.95535   2.96789   2.97716
 Alpha virt. eigenvalues --    2.98549   3.00382   3.01461   3.02574   3.04816
 Alpha virt. eigenvalues --    3.06264   3.08821   3.13313   3.15666   3.18371
 Alpha virt. eigenvalues --    3.25794   3.28697   3.30465   3.31231   3.31520
 Alpha virt. eigenvalues --    3.32160   3.33294   3.34125   3.36678   3.40167
 Alpha virt. eigenvalues --    3.41585   3.43952   3.45106   3.46459   3.49743
 Alpha virt. eigenvalues --    3.51410   3.53587   3.60298   3.61073   3.62887
 Alpha virt. eigenvalues --    3.68189   3.70427   3.73105   3.77842   3.80470
 Alpha virt. eigenvalues --    3.85922   3.88236   3.88426   3.92200   3.96437
 Alpha virt. eigenvalues --    4.01292   4.03676   4.07918   4.13515   4.16304
 Alpha virt. eigenvalues --    4.21459   4.25892   4.29223   4.30080   4.32065
 Alpha virt. eigenvalues --    4.40059   4.42302   4.43693   4.44499   4.52171
 Alpha virt. eigenvalues --    4.55543   4.56305   4.58191   4.60730   4.66444
 Alpha virt. eigenvalues --    4.69138   4.70236   4.74807   4.75907   4.77602
 Alpha virt. eigenvalues --    4.78621   4.89678   4.98613   5.04106   5.11123
 Alpha virt. eigenvalues --    5.16576   5.18836   5.24659   5.27866   5.28247
 Alpha virt. eigenvalues --    5.32106   5.44078   5.53754   5.64859   5.66177
 Alpha virt. eigenvalues --    5.87134   6.20153   6.47498  10.98326  11.12569
 Alpha virt. eigenvalues --   11.48280  11.80010  11.85795  12.19743
          Condensed to atoms (all electrons):
               1          2          3          4          5          6
     1  C    5.168582   0.225044   0.308020  -0.036672   0.013489   0.011384
     2  C    0.225044   4.747225  -0.041651   0.324288   0.611140   0.022254
     3  H    0.308020  -0.041651   0.565759  -0.004655   0.003133  -0.000135
     4  H   -0.036672   0.324288  -0.004655   0.566492   0.020773  -0.006685
     5  C    0.013489   0.611140   0.003133   0.020773   5.189680   0.326972
     6  H    0.011384   0.022254  -0.000135  -0.006685   0.326972   0.521648
     7  H   -0.030587  -0.013697  -0.000029   0.004972   0.380875  -0.033416
     8  C    0.463250   0.072313   0.027173  -0.012155  -0.054245   0.001669
     9  H   -0.052573  -0.019830   0.004963   0.000019   0.006547  -0.000047
    10  H    0.029822   0.004066  -0.006849  -0.000132   0.004088   0.000002
    11  C    0.017576  -0.037122  -0.000814   0.001610  -0.024050  -0.001133
    12  H    0.000123   0.001693   0.000000   0.000000  -0.002510   0.000000
    13  H   -0.012403   0.013948   0.000003  -0.000028  -0.008222   0.000008
    14  C   -0.039953   0.028157   0.000264  -0.000610   0.026317   0.001639
    15  H   -0.002068  -0.005917  -0.000000   0.000014   0.010188   0.000114
    16  H    0.000659  -0.000706   0.000000   0.000000  -0.000224   0.000003
               7          8          9         10         11         12
     1  C   -0.030587   0.463250  -0.052573   0.029822   0.017576   0.000123
     2  C   -0.013697   0.072313  -0.019830   0.004066  -0.037122   0.001693
     3  H   -0.000029   0.027173   0.004963  -0.006849  -0.000814   0.000000
     4  H    0.004972  -0.012155   0.000019  -0.000132   0.001610   0.000000
     5  C    0.380875  -0.054245   0.006547   0.004088  -0.024050  -0.002510
     6  H   -0.033416   0.001669  -0.000047   0.000002  -0.001133   0.000000
     7  H    0.529233   0.012941   0.000547  -0.000059  -0.003142   0.000002
     8  C    0.012941   5.150547   0.415066   0.324902   0.009535   0.000932
     9  H    0.000547   0.415066   0.526598  -0.033338   0.000006   0.000035
    10  H   -0.000059   0.324902  -0.033338   0.518451   0.000177  -0.000000
    11  C   -0.003142   0.009535   0.000006   0.000177   4.899201   0.346101
    12  H    0.000002   0.000932   0.000035  -0.000000   0.346101   0.526552
    13  H   -0.000023   0.010506  -0.000493   0.000028   0.381261  -0.034398
    14  C    0.002107  -0.001046   0.001577   0.000376   0.713835   0.008664
    15  H   -0.000062  -0.000066  -0.000004   0.000001  -0.017628   0.004694
    16  H    0.000009  -0.000124  -0.000000   0.000000  -0.006932  -0.007489
              13         14         15         16
     1  C   -0.012403  -0.039953  -0.002068   0.000659
     2  C    0.013948   0.028157  -0.005917  -0.000706
     3  H    0.000003   0.000264  -0.000000   0.000000
     4  H   -0.000028  -0.000610   0.000014   0.000000
     5  C   -0.008222   0.026317   0.010188  -0.000224
     6  H    0.000008   0.001639   0.000114   0.000003
     7  H   -0.000023   0.002107  -0.000062   0.000009
     8  C    0.010506  -0.001046  -0.000066  -0.000124
     9  H   -0.000493   0.001577  -0.000004  -0.000000
    10  H    0.000028   0.000376   0.000001   0.000000
    11  C    0.381261   0.713835  -0.017628  -0.006932
    12  H   -0.034398   0.008664   0.004694  -0.007489
    13  H    0.521871  -0.025961  -0.008395   0.004633
    14  C   -0.025961   4.874238   0.371171   0.362616
    15  H   -0.008395   0.371171   0.534999  -0.035558
    16  H    0.004633   0.362616  -0.035558   0.526017
 Mulliken charges:
               1
     1  C   -0.063691
     2  C    0.068795
     3  H    0.144819
     4  H    0.142767
     5  C   -0.503952
     6  H    0.155722
     7  H    0.150330
     8  C   -0.421196
     9  H    0.150929
    10  H    0.158467
    11  C   -0.278480
    12  H    0.155602
    13  H    0.157665
    14  C   -0.323389
    15  H    0.148517
    16  H    0.157097
 Sum of Mulliken charges =  -0.00000
 Mulliken charges with hydrogens summed into heavy atoms:
               1
     1  C    0.081128
     2  C    0.211562
     5  C   -0.197900
     8  C   -0.111801
    11  C    0.034787
    14  C   -0.017776
 APT charges:
               1
     1  C   -0.584761
     2  C   -0.473275
     3  H    0.580566
     4  H    0.463565
     5  C   -0.786560
     6  H    0.504174
     7  H    0.278586
     8  C   -0.750023
     9  H    0.135444
    10  H    0.627843
    11  C   -0.838468
    12  H    0.612970
    13  H    0.030000
    14  C   -0.651710
    15  H    0.132185
    16  H    0.719463
 Sum of APT charges =  -0.00000
 APT charges with hydrogens summed into heavy atoms:
               1
     1  C   -0.004195
     2  C   -0.009710
     5  C   -0.003799
     8  C    0.013264
    11  C   -0.195497
    14  C    0.199938
 Electronic spatial extent (au):  <R**2>=            919.4382
 Charge=             -0.0000 electrons
 Dipole moment (field-independent basis, Debye):
    X=              0.1674    Y=             -0.0523    Z=              0.0812  Tot=              0.1933
 Quadrupole moment (field-independent basis, Debye-Ang):
   XX=            -39.3167   YY=            -37.2447   ZZ=            -38.9682
   XY=             -0.6902   XZ=              3.2551   YZ=             -0.2664
 Traceless Quadrupole moment (field-independent basis, Debye-Ang):
   XX=             -0.8068   YY=              1.2652   ZZ=             -0.4584
   XY=             -0.6902   XZ=              3.2551   YZ=             -0.2664
 Octapole moment (field-independent basis, Debye-Ang**2):
  XXX=             -5.2607  YYY=             -0.2375  ZZZ=              0.6961  XYY=             -0.2572
  XXY=             -9.2556  XXZ=              1.1104  XZZ=              2.4970  YZZ=              1.3033
  YYZ=             -0.4835  XYZ=              4.3916
 Hexadecapole moment (field-independent basis, Debye-Ang**3):
 XXXX=           -832.2864 YYYY=           -311.0536 ZZZZ=           -126.5343 XXXY=              0.4782
 XXXZ=             39.4593 YYYX=            -10.1693 YYYZ=              5.5419 ZZZX=              8.5550
 ZZZY=             -0.3693 XXYY=           -195.5135 XXZZ=           -167.8091 YYZZ=            -75.6333
 XXYZ=             -8.2875 YYXZ=             -1.2714 ZZXY=              3.3858
 N-N= 2.011672318019D+02 E-N=-9.439771068055D+02  KE= 2.322650644035D+02
  Exact polarizability:   0.000   0.000   0.000   0.000   0.000   0.000
 Approx polarizability:  78.644  -7.310 106.579  15.892  -5.949  88.408
 No NMR shielding tensors so no spin-rotation constants.
 Leave Link  601 at Thu Mar 12 13:27:33 2020, MaxMem= 12884901888 cpu:               3.1 elap:               0.2
 (Enter /project/qslin/software/g16/l701.exe)
 ... and contract with generalized density number  0.
 Compute integral second derivatives.
 Leave Link  701 at Thu Mar 12 13:27:33 2020, MaxMem= 12884901888 cpu:               4.1 elap:               0.3
 (Enter /project/qslin/software/g16/l702.exe)
 L702 exits ... SP integral derivatives will be done elsewhere.
 Leave Link  702 at Thu Mar 12 13:27:33 2020, MaxMem= 12884901888 cpu:               0.5 elap:               0.1
 (Enter /project/qslin/software/g16/l703.exe)
 Integral derivatives from FoFJK, PRISM(SPDF).
 Compute integral second derivatives, UseDBF=F ICtDFT=           0.
 Calling FoFJK, ICntrl=    100147 FMM=F ISym2X=0 I1Cent= 0 IOpClX= 0 NMat=1 NMatS=1 NMatT=0.
 FoFJK:  IHMeth= 1 ICntrl=  100147 DoSepK=F KAlg= 0 I1Cent=           0 FoldK=F
 IRaf=         0 NMat=       1 IRICut=       1 DoRegI=T DoRafI=F ISym2E= 0 IDoP0=0 IntGTp=1.
 FoFCou: FMM=F IPFlag=           0 FMFlag=      100000 FMFlg1=         800
         NFxFlg=           0 DoJE=F BraDBF=F KetDBF=F FulRan=T
         wScrn=  0.000000 ICntrl=    100147 IOpCl=  0 I1Cent=           0 NGrid=           0
         NMat0=    1 NMatS0=      1 NMatT0=    0 NMatD0=    1 NMtDS0=    0 NMtDT0=    0
 Symmetry not used in FoFCou.
 Leave Link  703 at Thu Mar 12 13:28:33 2020, MaxMem= 12884901888 cpu:             946.9 elap:              59.4
 (Enter /project/qslin/software/g16/l716.exe)
 Dipole        = 6.58789677D-02-2.05638326D-02 3.19421181D-02
 Polarizability= 0.00000000D+00 0.00000000D+00 0.00000000D+00
                 0.00000000D+00 0.00000000D+00 0.00000000D+00
 ***** Axes restored to original set *****
 -------------------------------------------------------------------
 Center     Atomic                   Forces (Hartrees/Bohr)
 Number     Number              X              Y              Z
 -------------------------------------------------------------------
      1        6          -0.006201930   -0.001990371   -0.003867773
      2        6          -0.001329905    0.002269639   -0.007239037
      3        1          -0.001739376   -0.000527317   -0.000928284
      4        1          -0.000357088    0.000624255   -0.001887437
      5        6           0.003972442    0.004748355    0.005281034
      6        1           0.000657506    0.002349617   -0.000434733
      7        1           0.000407139   -0.000620732    0.002414308
      8        6           0.003349195   -0.005244179    0.004642074
      9        1           0.002330577    0.000673199    0.001362673
     10        1          -0.000744340   -0.002292589    0.000478571
     11        6          -0.003098350   -0.006753397   -0.006079997
     12        1           0.001045567   -0.001898429   -0.000765920
     13        1          -0.002681868    0.000120830   -0.001266731
     14        6           0.003601172    0.006347191    0.006383554
     15        1          -0.001232990    0.002227739    0.000832710
     16        1           0.002022248   -0.000033810    0.001074990
 -------------------------------------------------------------------
 Cartesian Forces:  Max     0.007239037 RMS     0.003196475
 FormGI is forming the generalized inverse of G from B-inverse, IUseBI=4.
 Leave Link  716 at Thu Mar 12 13:28:33 2020, MaxMem= 12884901888 cpu:               0.8 elap:               0.1
 (Enter /project/qslin/software/g16/l103.exe)

 GradGradGradGradGradGradGradGradGradGradGradGradGradGradGradGradGradGrad
 Berny optimization.
 Red2BG is reusing G-inverse.
 Internal  Forces:  Max     0.012691831 RMS     0.002939828
 Search for a local minimum.
 Step number   1 out of a maximum of   74
 All quantities printed in internal units (Hartrees-Bohrs-Radians)
 RMS Force = .29398D-02 SwitMx=.10000D-02 MixMth= 1
 Mixed Optimization -- RFO/linear search
 Second derivative matrix not updated -- analytic derivatives used.
 ITU=  0
     Eigenvalues ---   -0.00032   0.00030   0.00068   0.00102   0.00349
     Eigenvalues ---    0.00401   0.01669   0.01946   0.02130   0.02374
     Eigenvalues ---    0.02458   0.02661   0.02778   0.02997   0.03212
     Eigenvalues ---    0.03507   0.04693   0.06199   0.08867   0.10554
     Eigenvalues ---    0.10900   0.11004   0.11025   0.11397   0.13137
     Eigenvalues ---    0.14377   0.15089   0.17305   0.34426   0.35210
     Eigenvalues ---    0.35831   0.35972   0.36169   0.36593   0.36660
     Eigenvalues ---    0.36682   0.36850   0.36972   0.37023   0.60751
     Eigenvalues ---    0.62029   0.65163
 Eigenvalue     1 is  -3.19D-04 should be greater than     0.000000 Eigenvector:
                          R8        D18       A10       A22       D15
   1                   -0.72137  -0.33022  -0.30602   0.27399  -0.22520
                          D19       D20       A18       A14       R11
   1                    0.20403   0.20179   0.14515  -0.13400   0.08935
 RFO step:  Lambda=-1.06602706D-03 EMin=-3.19300066D-04
 Linear search not attempted -- first point.
 Maximum step size (   0.300) exceeded in Quadratic search.
    -- Step size scaled by   0.464
 Iteration  1 RMS(Cart)=  0.09317816 RMS(Int)=  0.00929513
 Iteration  2 RMS(Cart)=  0.01283665 RMS(Int)=  0.00064405
 Iteration  3 RMS(Cart)=  0.00004190 RMS(Int)=  0.00064325
 Iteration  4 RMS(Cart)=  0.00000004 RMS(Int)=  0.00064325
 ITry= 1 IFail=0 DXMaxC= 3.20D-01 DCOld= 1.00D+10 DXMaxT= 3.00D-01 DXLimC= 3.00D+00 Rises=F
 Variable       Old X    -DE/DX   Delta X   Delta X   Delta X     New X
                                 (Linear)    (Quad)   (Total)
    R1        2.76253   0.00993   0.00000   0.01243   0.01236   2.77489
    R2        2.05621   0.00203   0.00000   0.00230   0.00230   2.05851
    R3        2.51610   0.01046   0.00000   0.00748   0.00759   2.52369
    R4        2.05653   0.00202   0.00000   0.00220   0.00220   2.05873
    R5        2.51598   0.01094   0.00000   0.00769   0.00734   2.52332
    R6        2.04803   0.00247   0.00000   0.00326   0.00326   2.05129
    R7        2.05057   0.00272   0.00000   0.00298   0.00265   2.05322
    R8        5.45033  -0.00018   0.00000  -0.25731  -0.25709   5.19324
    R9        2.05042   0.00263   0.00000   0.00333   0.00351   2.05393
   R10        2.04789   0.00245   0.00000   0.00301   0.00301   2.05090
   R11        5.18934  -0.00007   0.00000  -0.00054  -0.00087   5.18847
   R12        2.05082   0.00229   0.00000   0.00287   0.00287   2.05369
   R13        2.04980   0.00275   0.00000   0.00339   0.00347   2.05328
   R14        2.50186   0.01269   0.00000   0.00868   0.00903   2.51090
   R15        2.05080   0.00265   0.00000   0.00355   0.00383   2.05463
   R16        2.05074   0.00228   0.00000   0.00279   0.00279   2.05353
    A1        2.02307   0.00034   0.00000   0.00042   0.00048   2.02355
    A2        2.18557  -0.00074   0.00000  -0.00237  -0.00254   2.18303
    A3        2.07426   0.00041   0.00000   0.00197   0.00207   2.07633
    A4        2.02455   0.00006   0.00000   0.00067   0.00042   2.02497
    A5        2.18671  -0.00026   0.00000  -0.00251  -0.00200   2.18472
    A6        2.07165   0.00020   0.00000   0.00184   0.00160   2.07324
    A7        2.11681   0.00001   0.00000  -0.00082  -0.00096   2.11586
    A8        2.11985   0.00030   0.00000   0.00017   0.00045   2.12030
    A9        2.04638  -0.00032   0.00000   0.00058   0.00043   2.04681
   A10        1.45525   0.00015   0.00000  -0.11095  -0.11100   1.34425
   A11        2.12255  -0.00057   0.00000  -0.00113  -0.00108   2.12148
   A12        2.11506   0.00049   0.00000   0.00028   0.00023   2.11529
   A13        2.04537   0.00008   0.00000   0.00087   0.00086   2.04623
   A14        1.73856  -0.00037   0.00000  -0.04783  -0.04649   1.69206
   A15        2.04092  -0.00030   0.00000   0.00101   0.00102   2.04194
   A16        2.12387   0.00017   0.00000   0.00056   0.00057   2.12443
   A17        2.11839   0.00012   0.00000  -0.00157  -0.00158   2.11681
   A18        1.73768  -0.00068   0.00000   0.04893   0.04936   1.78704
   A19        2.11603   0.00034   0.00000  -0.00391  -0.00373   2.11230
   A20        2.12762   0.00007   0.00000   0.00040   0.00031   2.12793
   A21        2.03954  -0.00041   0.00000   0.00351   0.00342   2.04296
   A22        2.24192   0.00023   0.00000   0.07720   0.07566   2.31759
    D1       -0.53182  -0.00012   0.00000  -0.01109  -0.01072  -0.54254
    D2        2.58429  -0.00006   0.00000  -0.01102  -0.00997   2.57432
    D3        2.58339  -0.00011   0.00000  -0.01015  -0.01036   2.57303
    D4       -0.58368  -0.00005   0.00000  -0.01008  -0.00961  -0.59329
    D5       -0.04087   0.00006   0.00000   0.00020   0.00156  -0.03930
    D6        3.12288   0.00004   0.00000  -0.00049   0.00070   3.12358
    D7        3.07364   0.00006   0.00000   0.00113   0.00191   3.07554
    D8       -0.04580   0.00004   0.00000   0.00045   0.00104  -0.04475
    D9        3.12319  -0.00004   0.00000   0.00310   0.00227   3.12546
   D10       -0.03687  -0.00026   0.00000  -0.00176  -0.00215  -0.03903
   D11       -0.04451   0.00003   0.00000   0.00316   0.00302  -0.04149
   D12        3.07862  -0.00020   0.00000  -0.00170  -0.00140   3.07721
   D13        1.88819  -0.00006   0.00000   0.01185   0.01043   1.89862
   D14       -1.27116  -0.00027   0.00000   0.00717   0.00616  -1.26499
   D15       -1.74577  -0.00072   0.00000  -0.10776  -0.10807  -1.85384
   D16       -0.96981   0.00002   0.00000  -0.00865  -0.00697  -0.97678
   D17        2.15048   0.00005   0.00000  -0.00800  -0.00615   2.14433
   D18       -2.77517  -0.00018   0.00000  -0.11711  -0.11753  -2.89271
   D19        1.84136  -0.00041   0.00000   0.05467   0.05585   1.89720
   D20       -1.29529  -0.00030   0.00000   0.05259   0.05375  -1.24154
   D21        3.13944  -0.00025   0.00000   0.00006   0.00091   3.14036
   D22       -0.00058  -0.00019   0.00000  -0.00082  -0.00056  -0.00114
   D23       -0.00733  -0.00037   0.00000   0.00224   0.00311  -0.00422
   D24        3.13582  -0.00031   0.00000   0.00136   0.00164   3.13746
   D25        0.85032  -0.00051   0.00000   0.03963   0.03963   0.88995
   D26       -2.29276  -0.00056   0.00000   0.04046   0.04103  -2.25173
         Item               Value     Threshold  Converged?
 Maximum Force            0.012692     0.000450     NO 
 RMS     Force            0.002940     0.000300     NO 
 Maximum Displacement     0.319540     0.001800     NO 
 RMS     Displacement     0.099571     0.001200     NO 
 Predicted change in Energy=-4.279034D-04
 Lowest energy point so far.  Saving SCF results.
 GradGradGradGradGradGradGradGradGradGradGradGradGradGradGradGradGradGrad

 Leave Link  103 at Thu Mar 12 13:28:33 2020, MaxMem= 12884901888 cpu:               1.0 elap:               0.1
 (Enter /project/qslin/software/g16/l202.exe)
                          Input orientation:                          
 ---------------------------------------------------------------------
 Center     Atomic      Atomic             Coordinates (Angstroms)
 Number     Number       Type             X           Y           Z
 ---------------------------------------------------------------------
      1          6           0       -1.825088   -0.567485   -0.250439
      2          6           0       -1.315591    0.787010   -0.499405
      3          1           0       -2.697343   -0.862910   -0.832252
      4          1           0       -1.452024    1.170757   -1.509847
      5          6           0       -0.735697    1.570538    0.413168
      6          1           0       -0.368012    2.558609    0.154659
      7          1           0       -0.631176    1.255325    1.447691
      8          6           0       -1.285904   -1.446333    0.598333
      9          1           0       -0.380376   -1.217979    1.154402
     10          1           0       -1.725336   -2.427641    0.745926
     11          6           0        2.198086   -0.639229   -0.582202
     12          1           0        2.844389   -1.469352   -0.854688
     13          1           0        1.200239   -0.629349   -1.012071
     14          6           0        2.603983    0.320956    0.241667
     15          1           0        1.948239    1.147021    0.505787
     16          1           0        3.598162    0.319364    0.680393
 ---------------------------------------------------------------------
                    Distance matrix (angstroms):
                    1          2          3          4          5
     1  C    0.000000
     2  C    1.468409   0.000000
     3  H    1.089317   2.177673   0.000000
     4  H    2.178708   1.089435   2.479063   0.000000
     5  C    2.489636   1.335284   3.364639   2.090678   0.000000
     6  H    3.472699   2.112882   4.255182   2.423179   1.085497
     7  H    2.762554   2.116348   3.735519   3.070501   1.086519
     8  C    1.335480   2.488720   2.092633   3.364695   3.072218
     9  H    2.117526   2.762189   3.072655   3.735333   2.907148
    10  H    2.112552   3.471703   2.425660   4.255782   4.132257
    11  C    4.037467   3.793011   4.906912   4.178502   3.805380
    12  H    4.794006   4.745822   5.574861   5.085133   4.864710
    13  H    3.120338   2.932285   3.908712   3.243865   3.258628
    14  C    4.544025   4.016149   5.537048   4.499017   3.569920
    15  H    4.213004   3.434036   5.235609   3.952864   2.718724
    16  H    5.573562   5.074996   6.581737   5.570135   4.518759
                    6          7          8          9         10
     6  H    0.000000
     7  H    1.854653   0.000000
     8  C    4.132667   2.906722   0.000000
     9  H    3.906694   2.503228   1.086895   0.000000
    10  H    5.201405   3.905623   1.085288   1.854468   0.000000
    11  C    4.165812   3.964155   3.766068   3.162153   4.511716
    12  H    5.250026   4.980398   4.378484   3.807721   4.935856
    13  H    3.739485   3.599515   3.072746   2.745621   3.857900
    14  C    3.721211   3.576841   4.287393   3.479627   5.152869
    15  H    2.735122   2.748144   4.146532   3.381771   5.131377
    16  H    4.584883   4.399099   5.194086   4.291489   5.990823
                   11         12         13         14         15
    11  C    0.000000
    12  H    1.086766   0.000000
    13  H    1.086547   1.852999   0.000000
    14  C    1.328709   2.113053   2.108420   0.000000
    15  H    2.106379   3.082107   2.453342   1.087264   0.000000
    16  H    2.115008   2.474702   3.084563   1.086681   1.854117
                   16
    16  H    0.000000
 Stoichiometry    C6H10
 Framework group  C1[X(C6H10)]
 Deg. of freedom    42
 Full point group                 C1      NOp   1
 RotChk:  IX=0 Diff= 5.13D-02
 Largest Abelian subgroup         C1      NOp   1
 Largest concise Abelian subgroup C1      NOp   1
                         Standard orientation:                         
 ---------------------------------------------------------------------
 Center     Atomic      Atomic             Coordinates (Angstroms)
 Number     Number       Type             X           Y           Z
 ---------------------------------------------------------------------
      1          6           0        1.840697   -0.517313    0.271766
      2          6           0        1.287719    0.817945    0.531630
      3          1           0        2.712111   -0.795564    0.863225
      4          1           0        1.397047    1.190758    1.549435
      5          6           0        0.699279    1.597400   -0.378958
      6          1           0        0.298676    2.570435   -0.112453
      7          1           0        0.620202    1.294367   -1.419362
      8          6           0        1.340906   -1.399087   -0.597826
      9          1           0        0.437811   -1.189218   -1.165025
     10          1           0        1.811289   -2.364881   -0.752198
     11          6           0       -2.183296   -0.711417    0.538123
     12          1           0       -2.809036   -1.563953    0.788509
     13          1           0       -1.192985   -0.678644    0.983986
     14          6           0       -2.604419    0.248394   -0.278508
     15          1           0       -1.969254    1.097027   -0.520436
     16          1           0       -3.591171    0.224140   -0.733051
 ---------------------------------------------------------------------
 Rotational constants (GHZ):           4.2805681           1.7399494           1.4036909
 Leave Link  202 at Thu Mar 12 13:28:33 2020, MaxMem= 12884901888 cpu:               0.6 elap:               0.1
 (Enter /project/qslin/software/g16/l301.exe)
 Standard basis: 6-31+G(2df,p) (6D, 7F)
 Ernie: Thresh=  0.10000D-02 Tol=  0.10000D-05 Strict=F.
 There are   260 symmetry adapted cartesian basis functions of A   symmetry.
 There are   242 symmetry adapted basis functions of A   symmetry.
   242 basis functions,   358 primitive gaussians,   260 cartesian basis functions
    23 alpha electrons       23 beta electrons
       nuclear repulsion energy       202.0521012862 Hartrees.
 IExCor= 3226 DFT=T Ex+Corr=BMK ExCW=0 ScaHFX=  0.420000
 ScaDFX=  1.000000  1.000000  1.000000  1.000000 ScalE2=  1.000000  1.000000
 IRadAn=      5 IRanWt=     -1 IRanGd=            0 ICorTp=0 IEmpDi=  4
 NAtoms=   16 NActive=   16 NUniq=   16 SFac= 1.00D+00 NAtFMM=   60 NAOKFM=F Big=F
 Integral buffers will be    131072 words long.
 Raffenetti 2 integral format.
 Two-electron integral symmetry is turned on.
 Leave Link  301 at Thu Mar 12 13:28:33 2020, MaxMem= 12884901888 cpu:               0.7 elap:               0.1
 (Enter /project/qslin/software/g16/l302.exe)
 NPDir=0 NMtPBC=     1 NCelOv=     1 NCel=       1 NClECP=     1 NCelD=      1
         NCelK=      1 NCelE2=     1 NClLst=     1 CellRange=     0.0.
 One-electron integrals computed using PRISM.
 One-electron integral symmetry used in STVInt
 NBasis=   242 RedAO= T EigKep=  3.69D-05  NBF=   242
 NBsUse=   242 1.00D-06 EigRej= -1.00D+00 NBFU=   242
 Precomputing XC quadrature grid using
 IXCGrd= 4 IRadAn=           5 IRanWt=          -1 IRanGd=           0 AccXCQ= 0.00D+00.
 Generated NRdTot=       0 NPtTot=           0 NUsed=           0 NTot=          32
 NSgBfM=   260   260   260   260   260 MxSgAt=    16 MxSgA2=    16.
 Leave Link  302 at Thu Mar 12 13:28:33 2020, MaxMem= 12884901888 cpu:               3.2 elap:               0.2
 (Enter /project/qslin/software/g16/l303.exe)
 DipDrv:  MaxL=1.
 Leave Link  303 at Thu Mar 12 13:28:34 2020, MaxMem= 12884901888 cpu:               1.2 elap:               0.1
 (Enter /project/qslin/software/g16/l401.exe)
 Initial guess from the checkpoint file:  "DA-R.chk"
 B after Tr=    -0.000000   -0.000000    0.000000
         Rot=    0.999844   -0.005835    0.005986   -0.015547 Ang=  -2.02 deg.
 Guess basis will be translated and rotated to current coordinates.
 JPrj=2 DoOrth=T DoCkMO=T.
 Generating alternative initial guess.
 ExpMin= 4.38D-02 ExpMax= 3.05D+03 ExpMxC= 4.57D+02 IAcc=2 IRadAn=         4 AccDes= 0.00D+00
 Harris functional with IExCor= 1009 and IRadAn=       4 diagonalized for initial guess.
 HarFok:  IExCor= 1009 AccDes= 0.00D+00 IRadAn=         4 IDoV= 1 UseB2=F ITyADJ=14
 ICtDFT=  3500011 ScaDFX=  1.000000  1.000000  1.000000  1.000000
 FoFCou: FMM=F IPFlag=           0 FMFlag=      100000 FMFlg1=           0
         NFxFlg=           0 DoJE=T BraDBF=F KetDBF=T FulRan=T
         wScrn=  0.000000 ICntrl=       500 IOpCl=  0 I1Cent=   200000004 NGrid=           0
         NMat0=    1 NMatS0=      1 NMatT0=    0 NMatD0=    1 NMtDS0=    0 NMtDT0=    0
 Petite list used in FoFCou.
 Harris En= -234.447768448453    
 Leave Link  401 at Thu Mar 12 13:28:34 2020, MaxMem= 12884901888 cpu:               7.5 elap:               0.5
 (Enter /project/qslin/software/g16/l502.exe)
 Integral symmetry usage will be decided dynamically.
 Closed shell SCF:
 Using DIIS extrapolation, IDIIS=  1040.
 NGot= 12884901888 LenX= 12884760018 LenY= 12884691977
 Requested convergence on RMS density matrix=1.00D-08 within 128 cycles.
 Requested convergence on MAX density matrix=1.00D-06.
 Requested convergence on             energy=1.00D-06.
 No special actions if energy rises.
 Fock matrices will be formed incrementally for  20 cycles.

 Cycle   1  Pass 1  IDiag  1:
 FoFJK:  IHMeth= 1 ICntrl=       0 DoSepK=F KAlg= 0 I1Cent=           0 FoldK=F
 IRaf= 960000000 NMat=       1 IRICut=       1 DoRegI=T DoRafI=F ISym2E= 0 IDoP0=0 IntGTp=1.
 FoFCou: FMM=F IPFlag=           0 FMFlag=      100000 FMFlg1=           0
         NFxFlg=           0 DoJE=F BraDBF=F KetDBF=F FulRan=T
         wScrn=  0.000000 ICntrl=         0 IOpCl=  0 I1Cent=           0 NGrid=           0
         NMat0=    1 NMatS0=      1 NMatT0=    0 NMatD0=    1 NMtDS0=    0 NMtDT0=    0
 Symmetry not used in FoFCou.
 E= -234.403622803376    
 DIIS: error= 3.35D-03 at cycle   1 NSaved=   1.
 NSaved= 1 IEnMin= 1 EnMin= -234.403622803376     IErMin= 1 ErrMin= 3.35D-03
 ErrMax= 3.35D-03  0.00D+00 EMaxC= 1.00D-01 BMatC= 5.28D-03 BMatP= 5.28D-03
 IDIUse=3 WtCom= 9.67D-01 WtEn= 3.35D-02
 Coeff-Com:  0.100D+01
 Coeff-En:   0.100D+01
 Coeff:      0.100D+01
 Gap=     0.568 Goal=   None    Shift=    0.000
 GapD=    0.568 DampG=2.000 DampE=1.000 DampFc=2.0000 IDamp=-1.
 RMSDP=9.16D-04 MaxDP=3.56D-02              OVMax= 2.75D-02

 Cycle   2  Pass 1  IDiag  1:
 RMSU=  9.16D-04    CP:  1.00D+00
 E= -234.412109603229     Delta-E=       -0.008486799853 Rises=F Damp=F
 DIIS: error= 6.84D-04 at cycle   2 NSaved=   2.
 NSaved= 2 IEnMin= 2 EnMin= -234.412109603229     IErMin= 2 ErrMin= 6.84D-04
 ErrMax= 6.84D-04  0.00D+00 EMaxC= 1.00D-01 BMatC= 1.44D-04 BMatP= 5.28D-03
 IDIUse=3 WtCom= 9.93D-01 WtEn= 6.84D-03
 Coeff-Com: -0.137D+00 0.114D+01
 Coeff-En:   0.000D+00 0.100D+01
 Coeff:     -0.136D+00 0.114D+01
 Gap=     0.266 Goal=   None    Shift=    0.000
 RMSDP=1.43D-04 MaxDP=6.31D-03 DE=-8.49D-03 OVMax= 8.18D-03

 Cycle   3  Pass 1  IDiag  1:
 RMSU=  1.32D-04    CP:  1.00D+00  1.06D+00
 E= -234.412466668788     Delta-E=       -0.000357065559 Rises=F Damp=F
 DIIS: error= 1.87D-04 at cycle   3 NSaved=   3.
 NSaved= 3 IEnMin= 3 EnMin= -234.412466668788     IErMin= 3 ErrMin= 1.87D-04
 ErrMax= 1.87D-04  0.00D+00 EMaxC= 1.00D-01 BMatC= 1.73D-05 BMatP= 1.44D-04
 IDIUse=3 WtCom= 9.98D-01 WtEn= 1.87D-03
 Coeff-Com: -0.438D-01 0.277D+00 0.767D+00
 Coeff-En:   0.000D+00 0.000D+00 0.100D+01
 Coeff:     -0.437D-01 0.276D+00 0.767D+00
 Gap=     0.266 Goal=   None    Shift=    0.000
 RMSDP=4.35D-05 MaxDP=1.71D-03 DE=-3.57D-04 OVMax= 1.78D-03

 Cycle   4  Pass 1  IDiag  1:
 RMSU=  4.15D-05    CP:  9.99D-01  1.05D+00  1.03D+00
 E= -234.412484995607     Delta-E=       -0.000018326818 Rises=F Damp=F
 DIIS: error= 1.42D-04 at cycle   4 NSaved=   4.
 NSaved= 4 IEnMin= 4 EnMin= -234.412484995607     IErMin= 4 ErrMin= 1.42D-04
 ErrMax= 1.42D-04  0.00D+00 EMaxC= 1.00D-01 BMatC= 5.86D-06 BMatP= 1.73D-05
 IDIUse=3 WtCom= 9.99D-01 WtEn= 1.42D-03
 Coeff-Com:  0.447D-02-0.766D-01 0.347D+00 0.725D+00
 Coeff-En:   0.000D+00 0.000D+00 0.472D-02 0.995D+00
 Coeff:      0.446D-02-0.765D-01 0.347D+00 0.725D+00
 Gap=     0.266 Goal=   None    Shift=    0.000
 RMSDP=1.60D-05 MaxDP=6.32D-04 DE=-1.83D-05 OVMax= 1.18D-03

 Cycle   5  Pass 1  IDiag  1:
 RMSU=  1.32D-05    CP:  9.99D-01  1.05D+00  1.09D+00  8.97D-01
 E= -234.412491488913     Delta-E=       -0.000006493306 Rises=F Damp=F
 DIIS: error= 7.04D-05 at cycle   5 NSaved=   5.
 NSaved= 5 IEnMin= 5 EnMin= -234.412491488913     IErMin= 5 ErrMin= 7.04D-05
 ErrMax= 7.04D-05  0.00D+00 EMaxC= 1.00D-01 BMatC= 9.55D-07 BMatP= 5.86D-06
 IDIUse=1 WtCom= 1.00D+00 WtEn= 0.00D+00
 Coeff-Com:  0.620D-02-0.649D-01 0.118D+00 0.389D+00 0.552D+00
 Coeff:      0.620D-02-0.649D-01 0.118D+00 0.389D+00 0.552D+00
 Gap=     0.266 Goal=   None    Shift=    0.000
 RMSDP=6.99D-06 MaxDP=3.58D-04 DE=-6.49D-06 OVMax= 3.85D-04

 Cycle   6  Pass 1  IDiag  1:
 RMSU=  4.28D-06    CP:  9.99D-01  1.04D+00  1.11D+00  9.55D-01  7.58D-01
 E= -234.412492535509     Delta-E=       -0.000001046596 Rises=F Damp=F
 DIIS: error= 8.16D-06 at cycle   6 NSaved=   6.
 NSaved= 6 IEnMin= 6 EnMin= -234.412492535509     IErMin= 6 ErrMin= 8.16D-06
 ErrMax= 8.16D-06  0.00D+00 EMaxC= 1.00D-01 BMatC= 3.19D-08 BMatP= 9.55D-07
 IDIUse=1 WtCom= 1.00D+00 WtEn= 0.00D+00
 Coeff-Com:  0.116D-02-0.778D-02-0.143D-01 0.123D-01 0.142D+00 0.867D+00
 Coeff:      0.116D-02-0.778D-02-0.143D-01 0.123D-01 0.142D+00 0.867D+00
 Gap=     0.266 Goal=   None    Shift=    0.000
 RMSDP=1.91D-06 MaxDP=6.89D-05 DE=-1.05D-06 OVMax= 7.90D-05

 Cycle   7  Pass 1  IDiag  1:
 RMSU=  1.42D-06    CP:  9.99D-01  1.04D+00  1.12D+00  9.64D-01  7.84D-01
                    CP:  1.06D+00
 E= -234.412492576923     Delta-E=       -0.000000041414 Rises=F Damp=F
 DIIS: error= 3.48D-06 at cycle   7 NSaved=   7.
 NSaved= 7 IEnMin= 7 EnMin= -234.412492576923     IErMin= 7 ErrMin= 3.48D-06
 ErrMax= 3.48D-06  0.00D+00 EMaxC= 1.00D-01 BMatC= 5.23D-09 BMatP= 3.19D-08
 IDIUse=1 WtCom= 1.00D+00 WtEn= 0.00D+00
 Coeff-Com: -0.457D-04 0.237D-02-0.161D-01-0.287D-01 0.835D-02 0.354D+00
 Coeff-Com:  0.680D+00
 Coeff:     -0.457D-04 0.237D-02-0.161D-01-0.287D-01 0.835D-02 0.354D+00
 Coeff:      0.680D+00
 Gap=     0.266 Goal=   None    Shift=    0.000
 RMSDP=7.41D-07 MaxDP=3.23D-05 DE=-4.14D-08 OVMax= 4.13D-05

 Cycle   8  Pass 1  IDiag  1:
 RMSU=  4.17D-07    CP:  9.99D-01  1.04D+00  1.12D+00  9.70D-01  8.10D-01
                    CP:  1.11D+00  7.78D-01
 E= -234.412492582225     Delta-E=       -0.000000005303 Rises=F Damp=F
 DIIS: error= 1.22D-06 at cycle   8 NSaved=   8.
 NSaved= 8 IEnMin= 8 EnMin= -234.412492582225     IErMin= 8 ErrMin= 1.22D-06
 ErrMax= 1.22D-06  0.00D+00 EMaxC= 1.00D-01 BMatC= 6.71D-10 BMatP= 5.23D-09
 IDIUse=1 WtCom= 1.00D+00 WtEn= 0.00D+00
 Coeff-Com: -0.122D-03 0.178D-02-0.621D-02-0.143D-01-0.857D-02 0.878D-01
 Coeff-Com:  0.322D+00 0.618D+00
 Coeff:     -0.122D-03 0.178D-02-0.621D-02-0.143D-01-0.857D-02 0.878D-01
 Coeff:      0.322D+00 0.618D+00
 Gap=     0.266 Goal=   None    Shift=    0.000
 RMSDP=1.69D-07 MaxDP=5.14D-06 DE=-5.30D-09 OVMax= 1.39D-05

 Cycle   9  Pass 1  IDiag  1:
 RMSU=  1.39D-07    CP:  9.99D-01  1.04D+00  1.12D+00  9.71D-01  8.10D-01
                    CP:  1.12D+00  8.23D-01  9.31D-01
 E= -234.412492582916     Delta-E=       -0.000000000691 Rises=F Damp=F
 DIIS: error= 2.43D-07 at cycle   9 NSaved=   9.
 NSaved= 9 IEnMin= 9 EnMin= -234.412492582916     IErMin= 9 ErrMin= 2.43D-07
 ErrMax= 2.43D-07  0.00D+00 EMaxC= 1.00D-01 BMatC= 2.84D-11 BMatP= 6.71D-10
 IDIUse=1 WtCom= 1.00D+00 WtEn= 0.00D+00
 Coeff-Com: -0.387D-04 0.412D-03-0.746D-03-0.242D-02-0.362D-02 0.575D-03
 Coeff-Com:  0.544D-01 0.212D+00 0.739D+00
 Coeff:     -0.387D-04 0.412D-03-0.746D-03-0.242D-02-0.362D-02 0.575D-03
 Coeff:      0.544D-01 0.212D+00 0.739D+00
 Gap=     0.266 Goal=   None    Shift=    0.000
 RMSDP=5.62D-08 MaxDP=3.31D-06 DE=-6.91D-10 OVMax= 3.22D-06

 Cycle  10  Pass 1  IDiag  1:
 RMSU=  3.42D-08    CP:  9.99D-01  1.04D+00  1.12D+00  9.70D-01  8.08D-01
                    CP:  1.12D+00  8.39D-01  9.71D-01  9.16D-01
 E= -234.412492582950     Delta-E=       -0.000000000034 Rises=F Damp=F
 DIIS: error= 7.34D-08 at cycle  10 NSaved=  10.
 NSaved=10 IEnMin=10 EnMin= -234.412492582950     IErMin=10 ErrMin= 7.34D-08
 ErrMax= 7.34D-08  0.00D+00 EMaxC= 1.00D-01 BMatC= 1.94D-12 BMatP= 2.84D-11
 IDIUse=1 WtCom= 1.00D+00 WtEn= 0.00D+00
 Coeff-Com: -0.441D-05 0.171D-04 0.160D-03 0.197D-03-0.667D-03-0.535D-02
 Coeff-Com: -0.344D-02 0.216D-01 0.228D+00 0.760D+00
 Coeff:     -0.441D-05 0.171D-04 0.160D-03 0.197D-03-0.667D-03-0.535D-02
 Coeff:     -0.344D-02 0.216D-01 0.228D+00 0.760D+00
 Gap=     0.266 Goal=   None    Shift=    0.000
 RMSDP=1.46D-08 MaxDP=4.29D-07 DE=-3.41D-11 OVMax= 4.73D-07

 Cycle  11  Pass 1  IDiag  1:
 RMSU=  8.05D-09    CP:  9.99D-01  1.04D+00  1.12D+00  9.70D-01  8.08D-01
                    CP:  1.12D+00  8.42D-01  9.84D-01  9.71D-01  9.97D-01
 E= -234.412492582950     Delta-E=       -0.000000000000 Rises=F Damp=F
 DIIS: error= 3.35D-08 at cycle  11 NSaved=  11.
 NSaved=11 IEnMin=11 EnMin= -234.412492582950     IErMin=11 ErrMin= 3.35D-08
 ErrMax= 3.35D-08  0.00D+00 EMaxC= 1.00D-01 BMatC= 3.08D-13 BMatP= 1.94D-12
 IDIUse=1 WtCom= 1.00D+00 WtEn= 0.00D+00
 Coeff-Com:  0.218D-05-0.356D-04 0.143D-03 0.346D-03 0.644D-04-0.232D-02
 Coeff-Com: -0.696D-02-0.140D-01 0.209D-01 0.318D+00 0.684D+00
 Coeff:      0.218D-05-0.356D-04 0.143D-03 0.346D-03 0.644D-04-0.232D-02
 Coeff:     -0.696D-02-0.140D-01 0.209D-01 0.318D+00 0.684D+00
 Gap=     0.266 Goal=   None    Shift=    0.000
 RMSDP=4.95D-09 MaxDP=1.78D-07 DE=-5.68D-14 OVMax= 2.68D-07

 SCF Done:  E(RBMK) =  -234.412492583     A.U. after   11 cycles
            NFock= 11  Conv=0.49D-08     -V/T= 2.0095
 KE= 2.321986330773D+02 PE=-9.456961441191D+02 EE= 2.770329171726D+02
 Leave Link  502 at Thu Mar 12 13:28:49 2020, MaxMem= 12884901888 cpu:             230.5 elap:              14.5
 (Enter /project/qslin/software/g16/l701.exe)
 ... and contract with generalized density number  0.
 Compute integral first derivatives.
 Leave Link  701 at Thu Mar 12 13:28:50 2020, MaxMem= 12884901888 cpu:               4.0 elap:               0.3
 (Enter /project/qslin/software/g16/l702.exe)
 L702 exits ... SP integral derivatives will be done elsewhere.
 Leave Link  702 at Thu Mar 12 13:28:50 2020, MaxMem= 12884901888 cpu:               0.3 elap:               0.0
 (Enter /project/qslin/software/g16/l703.exe)
 Integral derivatives from FoFJK, PRISM(SPDF).
 Compute integral first derivatives, UseDBF=F ICtDFT=           0.
 Calling FoFJK, ICntrl=      2127 FMM=F ISym2X=0 I1Cent= 0 IOpClX= 0 NMat=1 NMatS=1 NMatT=0.
 FoFJK:  IHMeth= 1 ICntrl=    2127 DoSepK=F KAlg= 0 I1Cent=           0 FoldK=F
 IRaf=         0 NMat=       1 IRICut=       1 DoRegI=T DoRafI=F ISym2E= 0 IDoP0=0 IntGTp=1.
 FoFCou: FMM=F IPFlag=           0 FMFlag=      100000 FMFlg1=         800
         NFxFlg=           0 DoJE=F BraDBF=F KetDBF=F FulRan=T
         wScrn=  0.000000 ICntrl=      2127 IOpCl=  0 I1Cent=           0 NGrid=           0
         NMat0=    1 NMatS0=      1 NMatT0=    0 NMatD0=    1 NMtDS0=    0 NMtDT0=    0
 Symmetry not used in FoFCou.
 Leave Link  703 at Thu Mar 12 13:28:54 2020, MaxMem= 12884901888 cpu:              71.8 elap:               4.5
 (Enter /project/qslin/software/g16/l716.exe)
 Dipole        = 6.91593067D-02-1.36754254D-02 3.23403354D-02
 ***** Axes restored to original set *****
 -------------------------------------------------------------------
 Center     Atomic                   Forces (Hartrees/Bohr)
[...]
 RMSDP=1.66D-08 MaxDP=5.94D-07 DE=-2.99D-10 OVMax= 2.61D-06

 Cycle   8  Pass 1  IDiag  1:
 RMSU=  8.62D-09    CP:  9.57D-01  1.08D+00  1.17D+00  1.18D+00  1.30D+00
                    CP:  1.34D+00  1.21D+00
 E= -233.047588355036     Delta-E=       -0.000000000038 Rises=F Damp=F
 DIIS: error= 8.58D-08 at cycle   8 NSaved=   8.
 NSaved= 8 IEnMin= 8 EnMin= -233.047588355036     IErMin= 8 ErrMin= 8.58D-08
 ErrMax= 8.58D-08  0.00D+00 EMaxC= 1.00D-01 BMatC= 1.14D-12 BMatP= 1.82D-11
 IDIUse=1 WtCom= 1.00D+00 WtEn= 0.00D+00
 Coeff-Com:  0.786D-05-0.171D-03 0.176D-02 0.462D-02-0.232D-01-0.703D-01
 Coeff-Com:  0.110D-01 0.108D+01
 Coeff:      0.786D-05-0.171D-03 0.176D-02 0.462D-02-0.232D-01-0.703D-01
 Coeff:      0.110D-01 0.108D+01
 Gap=     0.380 Goal=   None    Shift=    0.000
 RMSDP=5.44D-09 MaxDP=1.88D-07 DE=-3.75D-11 OVMax= 7.58D-07

 SCF Done:  E(RHF) =  -233.047588355     A.U. after    8 cycles
            NFock=  8  Conv=0.54D-08     -V/T= 2.0018
 KE= 2.326206509645D+02 PE=-9.425303179930D+02 EE= 2.763530426930D+02
 Leave Link  502 at Thu Mar 12 13:39:43 2020, MaxMem= 12884901888 cpu:            1390.7 elap:              87.3
 (Enter /project/qslin/software/g16/l601.exe)
 Copying SCF densities to generalized density rwf, IOpCl= 0 IROHF=0.

 **********************************************************************

            Population analysis using the SCF density.

 **********************************************************************

 Orbital symmetries:
       Occupied  (A) (A) (A) (A) (A) (A) (A) (A) (A) (A) (A) (A)
                 (A) (A) (A) (A) (A) (A) (A) (A) (A) (A) (A)
       Virtual   (A) (A) (A) (A) (A) (A) (A) (A) (A) (A) (A) (A)
                 (A) (A) (A) (A) (A) (A) (A) (A) (A) (A) (A) (A)
                 (A) (A) (A) (A) (A) (A) (A) (A) (A) (A) (A) (A)
                 (A) (A) (A) (A) (A) (A) (A) (A) (A) (A) (A) (A)
                 (A) (A) (A) (A) (A) (A) (A) (A) (A) (A) (A) (A)
                 (A) (A) (A) (A) (A) (A) (A) (A) (A) (A) (A) (A)
                 (A) (A) (A) (A) (A) (A) (A) (A) (A) (A) (A) (A)
                 (A) (A) (A) (A) (A) (A) (A) (A) (A) (A) (A) (A)
                 (A) (A) (A) (A) (A) (A) (A) (A) (A) (A) (A) (A)
                 (A) (A) (A) (A) (A) (A) (A) (A) (A) (A) (A) (A)
                 (A) (A) (A) (A) (A) (A) (A) (A) (A) (A) (A) (A)
                 (A) (A) (A) (A) (A) (A) (A) (A) (A) (A) (A) (A)
                 (A) (A) (A) (A) (A) (A) (A) (A) (A) (A) (A) (A)
                 (A) (A) (A) (A) (A) (A) (A) (A) (A) (A) (A) (A)
                 (A) (A) (A) (A) (A) (A) (A) (A) (A) (A) (A) (A)
                 (A) (A) (A) (A) (A) (A) (A) (A) (A) (A) (A) (A)
                 (A) (A) (A) (A) (A) (A) (A) (A) (A) (A) (A) (A)
                 (A) (A) (A) (A) (A) (A) (A) (A) (A) (A) (A) (A)
                 (A) (A) (A) (A) (A) (A) (A) (A) (A) (A) (A) (A)
                 (A) (A) (A) (A) (A) (A) (A) (A) (A) (A) (A) (A)
                 (A) (A) (A) (A) (A) (A) (A) (A) (A) (A) (A) (A)
                 (A) (A) (A) (A) (A) (A) (A) (A) (A) (A) (A) (A)
                 (A) (A) (A) (A) (A) (A) (A) (A) (A) (A) (A) (A)
                 (A) (A) (A) (A) (A) (A) (A) (A) (A) (A) (A) (A)
                 (A) (A) (A) (A) (A) (A) (A) (A) (A) (A) (A) (A)
                 (A) (A) (A) (A) (A) (A) (A) (A) (A) (A) (A) (A)
                 (A) (A) (A) (A) (A) (A) (A) (A) (A) (A) (A) (A)
                 (A) (A) (A) (A) (A) (A) (A) (A) (A) (A) (A) (A)
                 (A) (A) (A) (A) (A) (A) (A) (A) (A) (A) (A) (A)
                 (A) (A) (A) (A) (A) (A) (A) (A) (A) (A) (A) (A)
                 (A) (A) (A) (A) (A) (A) (A) (A) (A) (A) (A) (A)
                 (A) (A) (A) (A) (A) (A) (A) (A) (A) (A) (A) (A)
                 (A) (A) (A) (A) (A) (A) (A) (A) (A) (A) (A) (A)
                 (A) (A) (A) (A) (A) (A) (A) (A) (A) (A) (A) (A)
                 (A) (A) (A) (A) (A) (A) (A) (A) (A) (A) (A) (A)
                 (A) (A) (A) (A) (A) (A) (A) (A) (A) (A) (A) (A)
                 (A) (A) (A) (A) (A) (A) (A) (A) (A) (A) (A) (A)
                 (A) (A) (A) (A) (A) (A) (A) (A) (A) (A) (A) (A)
                 (A) (A) (A) (A) (A) (A) (A) (A) (A) (A) (A) (A)
                 (A) (A) (A) (A) (A) (A) (A) (A) (A) (A) (A) (A)
                 (A)
 The electronic state is 1-A.
 Alpha  occ. eigenvalues --  -11.24129 -11.24014 -11.23102 -11.22934 -11.22698
 Alpha  occ. eigenvalues --  -11.22514  -1.08912  -1.02761  -0.99337  -0.84193
 Alpha  occ. eigenvalues --   -0.78633  -0.72861  -0.66827  -0.63712  -0.60786
 Alpha  occ. eigenvalues --   -0.59116  -0.58174  -0.52531  -0.50158  -0.49686
 Alpha  occ. eigenvalues --   -0.42793  -0.37209  -0.33100
 Alpha virt. eigenvalues --    0.04923   0.04986   0.05482   0.06083   0.06696
 Alpha virt. eigenvalues --    0.07453   0.07827   0.08773   0.09193   0.10402
 Alpha virt. eigenvalues --    0.10770   0.10968   0.11786   0.12168   0.12587
 Alpha virt. eigenvalues --    0.13116   0.13414   0.15377   0.15902   0.16114
 Alpha virt. eigenvalues --    0.18096   0.18511   0.18899   0.20069   0.21081
 Alpha virt. eigenvalues --    0.21951   0.23439   0.24421   0.25631   0.26609
 Alpha virt. eigenvalues --    0.26778   0.29738   0.29878   0.30399   0.31638
 Alpha virt. eigenvalues --    0.31994   0.33970   0.35546   0.36732   0.37635
 Alpha virt. eigenvalues --    0.38174   0.39261   0.41000   0.42114   0.44559
 Alpha virt. eigenvalues --    0.45383   0.46495   0.47847   0.49363   0.51798
 Alpha virt. eigenvalues --    0.52399   0.53611   0.54216   0.55286   0.56284
 Alpha virt. eigenvalues --    0.56378   0.57534   0.57987   0.58564   0.59142
 Alpha virt. eigenvalues --    0.60215   0.60839   0.62440   0.62939   0.64065
 Alpha virt. eigenvalues --    0.65123   0.65722   0.66167   0.66934   0.67651
 Alpha virt. eigenvalues --    0.69230   0.69742   0.70438   0.72043   0.74304
 Alpha virt. eigenvalues --    0.75534   0.77076   0.78287   0.79395   0.80046
 Alpha virt. eigenvalues --    0.82252   0.83765   0.85624   0.87438   0.89048
 Alpha virt. eigenvalues --    0.90916   0.91841   0.95255   0.96494   0.97833
 Alpha virt. eigenvalues --    0.99708   1.01592   1.02122   1.03048   1.07172
 Alpha virt. eigenvalues --    1.08700   1.09319   1.12031   1.14548   1.15393
 Alpha virt. eigenvalues --    1.17016   1.18131   1.19229   1.20924   1.22086
 Alpha virt. eigenvalues --    1.24297   1.24806   1.26834   1.28232   1.29808
 Alpha virt. eigenvalues --    1.30983   1.32927   1.34995   1.39140   1.40015
 Alpha virt. eigenvalues --    1.43799   1.45800   1.48525   1.49913   1.51874
 Alpha virt. eigenvalues --    1.52406   1.53697   1.55956   1.56982   1.57715
 Alpha virt. eigenvalues --    1.59356   1.61091   1.61815   1.62718   1.65576
 Alpha virt. eigenvalues --    1.66427   1.67391   1.68173   1.69409   1.70479
 Alpha virt. eigenvalues --    1.71328   1.71837   1.72725   1.73189   1.76212
 Alpha virt. eigenvalues --    1.76855   1.77683   1.78534   1.80308   1.81644
 Alpha virt. eigenvalues --    1.82545   1.83655   1.83838   1.84462   1.88155
 Alpha virt. eigenvalues --    1.89501   1.92099   1.92409   1.92815   1.95475
 Alpha virt. eigenvalues --    1.95774   1.98651   1.99908   2.00765   2.01874
 Alpha virt. eigenvalues --    2.02455   2.03739   2.04142   2.05986   2.06670
 Alpha virt. eigenvalues --    2.07180   2.08577   2.09196   2.09930   2.10900
 Alpha virt. eigenvalues --    2.11935   2.14319   2.16812   2.17199   2.18364
 Alpha virt. eigenvalues --    2.19945   2.20362   2.22905   2.24524   2.25512
 Alpha virt. eigenvalues --    2.26283   2.27347   2.28581   2.30834   2.33084
 Alpha virt. eigenvalues --    2.33491   2.35637   2.37106   2.39364   2.40707
 Alpha virt. eigenvalues --    2.41455   2.43229   2.46158   2.48284   2.48436
 Alpha virt. eigenvalues --    2.50347   2.52195   2.53998   2.55841   2.56780
 Alpha virt. eigenvalues --    2.58180   2.59687   2.64520   2.66397   2.70096
 Alpha virt. eigenvalues --    2.71664   2.73639   2.75156   2.80570   2.83063
 Alpha virt. eigenvalues --    2.86082   2.93697   2.96050   2.98954   3.03732
 Alpha virt. eigenvalues --    3.04518   3.05177   3.08087   3.10648   3.17022
 Alpha virt. eigenvalues --    3.25813   3.30373   3.31549   3.36366   3.40770
 Alpha virt. eigenvalues --    3.45717   3.46334   3.47636   3.49154   3.52222
 Alpha virt. eigenvalues --    3.54245   3.56890   3.60549   3.62386   3.63290
 Alpha virt. eigenvalues --    3.65743   3.67078   3.76207   3.77625   3.80351
 Alpha virt. eigenvalues --    3.81660   3.86739   3.87252   3.91160   3.91728
 Alpha virt. eigenvalues --    3.98970   4.00366   4.01311   4.03040   4.04498
 Alpha virt. eigenvalues --    4.05677   4.06928   4.10064   4.11151   4.12529
 Alpha virt. eigenvalues --    4.13569   4.14308   4.17302   4.20873   4.21905
 Alpha virt. eigenvalues --    4.23264   4.24606   4.26321   4.28267   4.29718
 Alpha virt. eigenvalues --    4.30828   4.32667   4.35610   4.42187   4.42791
 Alpha virt. eigenvalues --    4.45340   4.47090   4.49821   4.50400   4.51136
 Alpha virt. eigenvalues --    4.52342   4.52995   4.57168   4.57625   4.59326
 Alpha virt. eigenvalues --    4.60099   4.66347   4.73672   4.73922   4.76513
 Alpha virt. eigenvalues --    4.78260   4.79228   4.82460   4.82568   4.85344
 Alpha virt. eigenvalues --    4.86388   4.92627   4.93594   4.95214   4.96019
 Alpha virt. eigenvalues --    4.99791   5.01251   5.02050   5.03652   5.05164
 Alpha virt. eigenvalues --    5.06250   5.09124   5.10415   5.11053   5.12931
 Alpha virt. eigenvalues --    5.14169   5.15514   5.19504   5.20247   5.22708
 Alpha virt. eigenvalues --    5.25343   5.26888   5.28592   5.31223   5.32800
 Alpha virt. eigenvalues --    5.33428   5.34590   5.36695   5.37768   5.37944
 Alpha virt. eigenvalues --    5.40105   5.41460   5.44748   5.45949   5.47490
 Alpha virt. eigenvalues --    5.52028   5.52916   5.55424   5.56142   5.58147
 Alpha virt. eigenvalues --    5.59344   5.62009   5.63373   5.64943   5.69195
 Alpha virt. eigenvalues --    5.71066   5.77515   5.80997   5.83440   5.87481
 Alpha virt. eigenvalues --    5.87686   5.88743   5.91653   5.96604   5.97672
 Alpha virt. eigenvalues --    6.01415   6.02279   6.05503   6.08983   6.09455
 Alpha virt. eigenvalues --    6.11852   6.13333   6.15578   6.16399   6.16946
 Alpha virt. eigenvalues --    6.18779   6.20933   6.21460   6.22580   6.23317
 Alpha virt. eigenvalues --    6.26321   6.27495   6.29302   6.32809   6.33242
 Alpha virt. eigenvalues --    6.34120   6.36021   6.37432   6.38806   6.39436
 Alpha virt. eigenvalues --    6.39624   6.41973   6.43660   6.44478   6.45388
 Alpha virt. eigenvalues --    6.47578   6.48283   6.49032   6.50511   6.52394
 Alpha virt. eigenvalues --    6.55249   6.55877   6.58031   6.59077   6.59891
 Alpha virt. eigenvalues --    6.60443   6.62009   6.62415   6.65124   6.69414
 Alpha virt. eigenvalues --    6.71574   6.72573   6.79743   6.83399   6.88480
 Alpha virt. eigenvalues --    6.93414   6.99907   7.03782   7.05973   7.08053
 Alpha virt. eigenvalues --    7.12853   7.13894   7.15090   7.18704   7.20325
 Alpha virt. eigenvalues --    7.21755   7.22780   7.25635   7.27982   7.32357
 Alpha virt. eigenvalues --    7.34621   7.36386   7.37015   7.37694   7.38655
 Alpha virt. eigenvalues --    7.39163   7.43586   7.44348   7.45519   7.49299
 Alpha virt. eigenvalues --    7.50352   7.50933   7.56079   7.56616   7.59148
 Alpha virt. eigenvalues --    7.61144   7.61332   7.64668   7.65923   7.66279
 Alpha virt. eigenvalues --    7.72444   7.73215   7.77229   7.77853   7.82619
 Alpha virt. eigenvalues --    7.92873   7.94207   8.00931   8.01999   8.08772
 Alpha virt. eigenvalues --    8.14008   8.16017   8.19558   8.20273   8.41995
 Alpha virt. eigenvalues --    8.48660   8.62721   8.72143   8.74625   8.75491
 Alpha virt. eigenvalues --    8.78763   8.79429   8.89089   8.97926   9.01915
 Alpha virt. eigenvalues --    9.04824   9.14042   9.16915   9.19005   9.37815
 Alpha virt. eigenvalues --    9.40080   9.59491   9.66513   9.90251  10.00380
 Alpha virt. eigenvalues --   10.27057  10.31493  10.39240  10.42621  10.43686
 Alpha virt. eigenvalues --   10.47978  10.54365  10.60899  10.65239  10.66264
 Alpha virt. eigenvalues --   23.40823  23.47941  23.60807  23.81857  24.07564
 Alpha virt. eigenvalues --   24.41406
          Condensed to atoms (all electrons):
               1          2          3          4          5          6
     1  C    4.817291   0.381510   0.430266  -0.047260  -0.086907   0.006774
     2  C    0.381510   4.809914  -0.049332   0.426311   0.703610  -0.032315
     3  H    0.430266  -0.049332   0.539315  -0.002111   0.006212  -0.000338
     4  H   -0.047260   0.426311  -0.002111   0.538612  -0.027241  -0.006611
     5  C   -0.086907   0.703610   0.006212  -0.027241   4.784428   0.424912
     6  H    0.006774  -0.032315  -0.000338  -0.006611   0.424912   0.522769
     7  H   -0.008583  -0.029943   0.000094   0.004862   0.429123  -0.032904
     8  C    0.677803  -0.066510  -0.029901   0.004094  -0.011735   0.000146
     9  H   -0.036599  -0.007304   0.004577   0.000159   0.001150  -0.000121
    10  H   -0.029655   0.004860  -0.006569  -0.000321   0.000534   0.000024
    11  C    0.003891  -0.005125  -0.000230   0.000198  -0.008199   0.000519
    12  H    0.000116   0.000295  -0.000000  -0.000010  -0.000004  -0.000003
    13  H   -0.001944  -0.002808   0.000001   0.000262  -0.002856  -0.000020
    14  C    0.001856  -0.002440   0.000045  -0.000040  -0.002459  -0.000322
    15  H    0.000613  -0.000901  -0.000003  -0.000067  -0.002845   0.000408
    16  H   -0.000058  -0.000062  -0.000000   0.000002   0.000495  -0.000009
               7          8          9         10         11         12
     1  C   -0.008583   0.677803  -0.036599  -0.029655   0.003891   0.000116
     2  C   -0.029943  -0.066510  -0.007304   0.004860  -0.005125   0.000295
     3  H    0.000094  -0.029901   0.004577  -0.006569  -0.000230  -0.000000
     4  H    0.004862   0.004094   0.000159  -0.000321   0.000198  -0.000010
     5  C    0.429123  -0.011735   0.001150   0.000534  -0.008199  -0.000004
     6  H   -0.032904   0.000146  -0.000121   0.000024   0.000519  -0.000003
     7  H    0.537659   0.001373  -0.000090  -0.000114  -0.000700  -0.000009
     8  C    0.001373   4.802280   0.435014   0.425145  -0.008479   0.000193
     9  H   -0.000090   0.435014   0.522045  -0.031201  -0.001193   0.000161
    10  H   -0.000114   0.425145  -0.031201   0.518962   0.000398  -0.000014
    11  C   -0.000700  -0.008479  -0.001193   0.000398   4.772185   0.428148
    12  H   -0.000009   0.000193   0.000161  -0.000014   0.428148   0.533639
    13  H    0.000094  -0.002259  -0.000700   0.000169   0.432118  -0.034998
    14  C   -0.000099  -0.003635   0.000067   0.000139   0.680007  -0.033160
    15  H   -0.000828   0.000029   0.000085  -0.000006  -0.033527   0.005419
    16  H    0.000034  -0.000123  -0.000039   0.000002  -0.030305  -0.007798
              13         14         15         16
     1  C   -0.001944   0.001856   0.000613  -0.000058
     2  C   -0.002808  -0.002440  -0.000901  -0.000062
     3  H    0.000001   0.000045  -0.000003  -0.000000
     4  H    0.000262  -0.000040  -0.000067   0.000002
     5  C   -0.002856  -0.002459  -0.002845   0.000495
     6  H   -0.000020  -0.000322   0.000408  -0.000009
     7  H    0.000094  -0.000099  -0.000828   0.000034
     8  C   -0.002259  -0.003635   0.000029  -0.000123
     9  H   -0.000700   0.000067   0.000085  -0.000039
    10  H    0.000169   0.000139  -0.000006   0.000002
    11  C    0.432118   0.680007  -0.033527  -0.030305
    12  H   -0.034998  -0.033160   0.005419  -0.007798
    13  H    0.521433  -0.033513  -0.006301   0.005014
    14  C   -0.033513   4.749924   0.427181   0.427734
    15  H   -0.006301   0.427181   0.542952  -0.036779
    16  H    0.005014   0.427734  -0.036779   0.535162
 Mulliken charges:
               1
     1  C   -0.109113
     2  C   -0.129759
     3  H    0.107975
     4  H    0.109159
     5  C   -0.208219
     6  H    0.117089
     7  H    0.100029
     8  C   -0.223435
     9  H    0.113988
    10  H    0.117646
    11  C   -0.229707
    12  H    0.108025
    13  H    0.126306
    14  C   -0.211286
    15  H    0.104570
    16  H    0.106731
 Sum of Mulliken charges =  -0.00000
 Mulliken charges with hydrogens summed into heavy atoms:
               1
     1  C   -0.001138
     2  C   -0.020600
     5  C    0.008899
     8  C    0.008200
    11  C    0.004624
    14  C    0.000015
 Electronic spatial extent (au):  <R**2>=            923.4145
 Charge=             -0.0000 electrons
 Dipole moment (field-independent basis, Debye):
    X=              0.1406    Y=             -0.0340    Z=              0.0375  Tot=              0.1494
 Quadrupole moment (field-independent basis, Debye-Ang):
   XX=            -39.9075   YY=            -37.3074   ZZ=            -39.9821
   XY=             -0.8879   XZ=              3.7699   YZ=             -0.0405
 Traceless Quadrupole moment (field-independent basis, Debye-Ang):
   XX=             -0.8418   YY=              1.7582   ZZ=             -0.9165
   XY=             -0.8879   XZ=              3.7699   YZ=             -0.0405
 Octapole moment (field-independent basis, Debye-Ang**2):
  XXX=             -3.6067  YYY=             -0.5697  ZZZ=              0.3260  XYY=             -1.9250
  XXY=             -8.0584  XXZ=              1.0281  XZZ=              3.0373  YZZ=              1.5343
  YYZ=             -0.5818  XYZ=              4.7366
 Hexadecapole moment (field-independent basis, Debye-Ang**3):
 XXXX=           -845.9063 YYYY=           -315.5863 ZZZZ=           -119.0361 XXXY=             -2.9885
 XXXZ=             46.1922 YYYX=            -10.8535 YYYZ=              5.9997 ZZZX=              9.9007
 ZZZY=              0.1994 XXYY=           -197.2683 XXZZ=           -172.4981 YYZZ=            -75.9068
 XXYZ=             -6.2383 YYXZ=             -0.8464 ZZXY=              3.2398
 N-N= 2.005090359805D+02 E-N=-9.425303181912D+02  KE= 2.326206509645D+02
 No NMR shielding tensors so no spin-rotation constants.
 Leave Link  601 at Thu Mar 12 13:39:44 2020, MaxMem= 12884901888 cpu:               6.4 elap:               0.5
 (Enter /project/qslin/software/g16/l9999.exe)
 1\1\GINC-N0094\SP\RHF\GFHFB4\C6H10\QSLIN\12-Mar-2020\0\\#p Geom=AllChe
 ck Guess=Read HF/GFHFB4\\G4(MP2)-6X calculation\\0,1\C,0,-1.8754517935
 ,-0.5775980874,-0.2624803288\C,0,-1.4156178415,0.804263549,-0.50607354
 26\H,0,-2.7724917361,-0.8832383332,-0.8021341571\H,0,-1.6556423767,1.2
 220715566,-1.4845523881\C,0,-0.7630072119,1.5673537778,0.3818701662\H,
 0,-0.4416479871,2.5751423908,0.1302206047\H,0,-0.5503596282,1.21228992
 44,1.3886441905\C,0,-1.2639422957,-1.4631112154,0.5366139772\H,0,-0.33
 6064011,-1.2198227954,1.0519227295\H,0,-1.6683590691,-2.4614149852,0.6
 839446376\C,0,2.1956423866,-0.6326086216,-0.5034697149\H,0,2.733739727
 9,-1.5580862486,-0.7001799662\H,0,1.2130067744,-0.5260111216,-0.959956
 7962\C,0,2.7130629091,0.3282711283,0.2645224925\H,0,2.1709696091,1.253
 3164173,0.4541294972\H,0,3.6927135437,0.2284856642,0.7280995986\\Versi
 on=ES64L-G16RevA.03\State=1-A\HF=-233.0475884\RMSD=5.440e-09\Dipole=-0
 .0547556,-0.0146839,-0.0155513\Quadrupole=-0.7356044,1.3372046,-0.6016
 002,0.6107622,2.80092,0.1060912\PG=C01 [X(C6H10)]\\@


 REVOLUTIONS HAVE NEVER LIGHTENED THE BURDEN OF TYRANNY:
 THEY HAVE MERELY SHIFTED IT TO OTHER SHOULDERS.
                                   -- G. B. SHAW (1903)
 Job cpu time:       0 days  0 hours 23 minutes 42.3 seconds.
 Elapsed time:       0 days  0 hours  1 minutes 29.7 seconds.
 File lengths (MBytes):  RWF=    132 Int=      0 D2E=      0 Chk=     19 Scr=      1
 Normal termination of Gaussian 16 at Thu Mar 12 13:39:44 2020.
DA-R.log                                 
   Temperature (K)   373.15
   NImag     0
   E_ele    -234.31053627
   H(0K)    -234.17559027
    H(T)    -234.16103059
    U(T)    -234.16221229
    G(T)    -234.22361531


