 Entering Gaussian System, Link 0=g16
 Input=DA-P.gjf
 Output=DA-P.log
 Initial command:
 /project/qslin/software/g16/l1.exe "/workfs/qslin/tmp/Gau-8543.inp" -scrdir="/workfs/qslin/tmp/"
 Default is to use a total of  16 processors:
                               16 via shared-memory
                                1 via Linda
 Entering Link 1 = /project/qslin/software/g16/l1.exe PID=      8544.
  
 Copyright (c) 1988,1990,1992,1993,1995,1998,2003,2009,2016,
            Gaussian, Inc.  All Rights Reserved.
  
 This is part of the Gaussian(R) 16 program.  It is based on
 the Gaussian(R) 09 system (copyright 2009, Gaussian, Inc.),
 the Gaussian(R) 03 system (copyright 2003, Gaussian, Inc.),
 the Gaussian(R) 98 system (copyright 1998, Gaussian, Inc.),
 the Gaussian(R) 94 system (copyright 1995, Gaussian, Inc.),
 the Gaussian 92(TM) system (copyright 1992, Gaussian, Inc.),
 the Gaussian 90(TM) system (copyright 1990, Gaussian, Inc.),
 the Gaussian 88(TM) system (copyright 1988, Gaussian, Inc.),
 the Gaussian 86(TM) system (copyright 1986, Carnegie Mellon
 University), and the Gaussian 82(TM) system (copyright 1983,
 Carnegie Mellon University). Gaussian is a federally registered
 trademark of Gaussian, Inc.
  
 This software contains proprietary and confidential information,
 including trade secrets, belonging to Gaussian, Inc.
  
 This software is provided under written license and may be
 used, copied, transmitted, or stored only in accord with that
 written license.
  
 The following legend is applicable only to US Government
 contracts under FAR:
  
                    RESTRICTED RIGHTS LEGEND
  
 Use, reproduction and disclosure by the US Government is
 subject to restrictions as set forth in subparagraphs (a)
 and (c) of the Commercial Computer Software - Restricted
 Rights clause in FAR 52.227-19.
  
 Gaussian, Inc.
 340 Quinnipiac St., Bldg. 40, Wallingford CT 06492
  
  
 ---------------------------------------------------------------
 Warning -- This program may not be used in any manner that
 competes with the business of Gaussian, Inc. or will provide
 assistance to any competitor of Gaussian, Inc.  The licensee
 of this program is prohibited from giving any competitor of
 Gaussian, Inc. access to this program.  By using this program,
 the user acknowledges that Gaussian, Inc. is engaged in the
 business of creating and licensing software in the field of
 computational chemistry and represents and warrants to the
 licensee that it is not a competitor of Gaussian, Inc. and that
 it will not use this program in any manner prohibited above.
 ---------------------------------------------------------------
  

 Cite this work as:
 Gaussian 16, Revision A.03,
 M. J. Frisch, G. W. Trucks, H. B. Schlegel, G. E. Scuseria, 
 M. A. Robb, J. R. Cheeseman, G. Scalmani, V. Barone, 
 G. A. Petersson, H. Nakatsuji, X. Li, M. Caricato, A. V. Marenich, 
 J. Bloino, B. G. Janesko, R. Gomperts, B. Mennucci, H. P. Hratchian, 
 J. V. Ortiz, A. F. Izmaylov, J. L. Sonnenberg, D. Williams-Young, 
 F. Ding, F. Lipparini, F. Egidi, J. Goings, B. Peng, A. Petrone, 
 T. Henderson, D. Ranasinghe, V. G. Zakrzewski, J. Gao, N. Rega, 
 G. Zheng, W. Liang, M. Hada, M. Ehara, K. Toyota, R. Fukuda, 
 J. Hasegawa, M. Ishida, T. Nakajima, Y. Honda, O. Kitao, H. Nakai, 
 T. Vreven, K. Throssell, J. A. Montgomery, Jr., J. E. Peralta, 
 F. Ogliaro, M. J. Bearpark, J. J. Heyd, E. N. Brothers, K. N. Kudin, 
 V. N. Staroverov, T. A. Keith, R. Kobayashi, J. Normand, 
 K. Raghavachari, A. P. Rendell, J. C. Burant, S. S. Iyengar, 
 J. Tomasi, M. Cossi, J. M. Millam, M. Klene, C. Adamo, R. Cammi, 
 J. W. Ochterski, R. L. Martin, K. Morokuma, O. Farkas, 
 J. B. Foresman, and D. J. Fox, Gaussian, Inc., Wallingford CT, 2016.
 
 ******************************************
 Gaussian 16:  ES64L-G16RevA.03 25-Dec-2016
                12-Mar-2020 
 ******************************************
 %nproc=16
 Will use up to   16 processors via shared memory.
 %mem=96GB
 %chk=DA-P.chk
 --------------------------------
 #p BMK/6-31+G(2df,p) Opt=calcall
 --------------------------------
 1/10=4,18=20,19=15,26=3,38=1/1,3;
 2/9=110,12=2,17=6,18=5,40=1/2;
 3/5=1,6=6,7=114,11=2,25=1,30=1,71=2,74=-34,140=1/1,2,3;
 4//1;
 5/5=2,38=5/2;
 8/6=4,10=90,11=11/1;
 11/6=1,8=1,9=11,15=111,16=1/1,2,10;
 10/6=1/2;
 6/7=2,8=2,9=2,10=2,18=1,28=1/1;
 7/10=1,25=1/1,2,3,16;
 1/10=4,18=20,19=15,26=3/3(3);
 2/9=110/2;
 7/8=1,9=1,25=1,44=-1/16;
 99//99;
 2/9=110/2;
 3/5=1,6=6,7=114,11=2,25=1,30=1,71=2,74=-34,140=1/1,2,3;
 4/5=5,16=3,69=1/1;
 5/5=2,38=5/2;
 8/6=4,10=90,11=11/1;
 11/6=1,8=1,9=11,15=111,16=1/1,2,10;
 10/6=1/2;
 7/10=1,25=1/1,2,3,16;
 1/10=4,18=20,19=15,26=3/3(-8);
 2/9=110/2;
 6/7=2,8=2,9=2,10=2,18=1,19=2,28=1/1;
 7/8=1,9=1,25=1,44=-1/16;
 99//99;
 Leave Link    1 at Thu Mar 12 15:06:27 2020, MaxMem= 12884901888 cpu:               1.3 elap:               0.1
 (Enter /project/qslin/software/g16/l101.exe)
 ----------------------
 G4(MP2)-6X calculation
 ----------------------
 Symbolic Z-matrix:
 Charge =  0 Multiplicity = 1
 C                    -0.62868   1.32229  -0.18953 
 C                     0.70928   1.2812   -0.1869 
 H                    -1.1721    2.18445  -0.57119 
 H                     1.30603   2.10826  -0.56663 
 C                     1.39394   0.04861   0.3626 
 H                     2.46744   0.05306   0.14102 
 H                     1.2995    0.04328   1.46077 
 C                    -1.38941   0.13522   0.35958 
 H                    -1.30034   0.12852   1.45817 
 H                    -2.4597    0.20437   0.13337 
 C                    -0.81565  -1.19542  -0.19884 
 H                    -1.22234  -2.03156   0.38368 
 H                    -1.18348  -1.31799  -1.22487 
 C                     0.7417   -1.2409   -0.20451 
 H                     1.09486  -1.37263  -1.23457 
 H                     1.10295  -2.10579   0.36584 
 
 ITRead=  0  0  0  0  0  0  0  0  0  0  0  0  0  0  0  0
 MicOpt= -1 -1 -1 -1 -1 -1 -1 -1 -1 -1 -1 -1 -1 -1 -1 -1
 NAtoms=     16 NQM=       16 NQMF=       0 NMMI=      0 NMMIF=      0
                NMic=       0 NMicF=      0.
                    Isotopes and Nuclear Properties:
 (Nuclear quadrupole moments (NQMom) in fm**2, nuclear magnetic moments (NMagM)
  in nuclear magnetons)

  Atom         1           2           3           4           5           6           7           8           9          10
 IAtWgt=          12          12           1           1          12           1           1          12           1           1
 AtmWgt=  12.0000000  12.0000000   1.0078250   1.0078250  12.0000000   1.0078250   1.0078250  12.0000000   1.0078250   1.0078250
 NucSpn=           0           0           1           1           0           1           1           0           1           1
 AtZEff=  -0.0000000  -0.0000000  -0.0000000  -0.0000000  -0.0000000  -0.0000000  -0.0000000  -0.0000000  -0.0000000  -0.0000000
 NQMom=    0.0000000   0.0000000   0.0000000   0.0000000   0.0000000   0.0000000   0.0000000   0.0000000   0.0000000   0.0000000
 NMagM=    0.0000000   0.0000000   2.7928460   2.7928460   0.0000000   2.7928460   2.7928460   0.0000000   2.7928460   2.7928460
 AtZNuc=   6.0000000   6.0000000   1.0000000   1.0000000   6.0000000   1.0000000   1.0000000   6.0000000   1.0000000   1.0000000

  Atom        11          12          13          14          15          16
 IAtWgt=          12           1           1          12           1           1
 AtmWgt=  12.0000000   1.0078250   1.0078250  12.0000000   1.0078250   1.0078250
 NucSpn=           0           1           1           0           1           1
 AtZEff=  -0.0000000  -0.0000000  -0.0000000  -0.0000000  -0.0000000  -0.0000000
 NQMom=    0.0000000   0.0000000   0.0000000   0.0000000   0.0000000   0.0000000
 NMagM=    0.0000000   2.7928460   2.7928460   0.0000000   2.7928460   2.7928460
 AtZNuc=   6.0000000   1.0000000   1.0000000   6.0000000   1.0000000   1.0000000
 Leave Link  101 at Thu Mar 12 15:06:28 2020, MaxMem= 12884901888 cpu:               4.9 elap:               0.3
 (Enter /project/qslin/software/g16/l103.exe)

 GradGradGradGradGradGradGradGradGradGradGradGradGradGradGradGradGradGrad
 Berny optimization.
 Initialization pass.
                           ----------------------------
                           !    Initial Parameters    !
                           ! (Angstroms and Degrees)  !
 --------------------------                            --------------------------
 ! Name  Definition              Value          Derivative Info.                !
 --------------------------------------------------------------------------------
 ! R1    R(1,2)                  1.3386         calculate D2E/DX2 analytically  !
 ! R2    R(1,3)                  1.0883         calculate D2E/DX2 analytically  !
 ! R3    R(1,8)                  1.5131         calculate D2E/DX2 analytically  !
 ! R4    R(2,4)                  1.0883         calculate D2E/DX2 analytically  !
 ! R5    R(2,5)                  1.5133         calculate D2E/DX2 analytically  !
 ! R6    R(5,6)                  1.0961         calculate D2E/DX2 analytically  !
 ! R7    R(5,7)                  1.1022         calculate D2E/DX2 analytically  !
 ! R8    R(5,14)                 1.5524         calculate D2E/DX2 analytically  !
 ! R9    R(8,9)                  1.1022         calculate D2E/DX2 analytically  !
 ! R10   R(8,10)                 1.0961         calculate D2E/DX2 analytically  !
 ! R11   R(8,11)                 1.5529         calculate D2E/DX2 analytically  !
 ! R12   R(11,12)                1.0972         calculate D2E/DX2 analytically  !
 ! R13   R(11,13)                1.0968         calculate D2E/DX2 analytically  !
 ! R14   R(11,14)                1.558          calculate D2E/DX2 analytically  !
 ! R15   R(14,15)                1.0969         calculate D2E/DX2 analytically  !
 ! R16   R(14,16)                1.0972         calculate D2E/DX2 analytically  !
 ! A1    A(2,1,3)              121.6094         calculate D2E/DX2 analytically  !
 ! A2    A(2,1,8)              118.5383         calculate D2E/DX2 analytically  !
 ! A3    A(3,1,8)              119.852          calculate D2E/DX2 analytically  !
 ! A4    A(1,2,4)              121.6061         calculate D2E/DX2 analytically  !
 ! A5    A(1,2,5)              118.5507         calculate D2E/DX2 analytically  !
 ! A6    A(4,2,5)              119.8431         calculate D2E/DX2 analytically  !
 ! A7    A(2,5,6)              111.4927         calculate D2E/DX2 analytically  !
 ! A8    A(2,5,7)              109.0836         calculate D2E/DX2 analytically  !
 ! A9    A(2,5,14)             110.7232         calculate D2E/DX2 analytically  !
 ! A10   A(6,5,7)              106.5787         calculate D2E/DX2 analytically  !
 ! A11   A(6,5,14)             109.9383         calculate D2E/DX2 analytically  !
 ! A12   A(7,5,14)             108.902          calculate D2E/DX2 analytically  !
 ! A13   A(1,8,9)              109.0178         calculate D2E/DX2 analytically  !
 ! A14   A(1,8,10)             111.5027         calculate D2E/DX2 analytically  !
 ! A15   A(1,8,11)             110.8536         calculate D2E/DX2 analytically  !
 ! A16   A(9,8,10)             106.5576         calculate D2E/DX2 analytically  !
 ! A17   A(9,8,11)             108.8645         calculate D2E/DX2 analytically  !
 ! A18   A(10,8,11)            109.914          calculate D2E/DX2 analytically  !
 ! A19   A(8,11,12)            108.9734         calculate D2E/DX2 analytically  !
 ! A20   A(8,11,13)            107.9524         calculate D2E/DX2 analytically  !
 ! A21   A(8,11,14)            113.3054         calculate D2E/DX2 analytically  !
 ! A22   A(12,11,13)           106.6883         calculate D2E/DX2 analytically  !
 ! A23   A(12,11,14)           110.4986         calculate D2E/DX2 analytically  !
 ! A24   A(13,11,14)           109.1799         calculate D2E/DX2 analytically  !
 ! A25   A(5,14,11)            113.2281         calculate D2E/DX2 analytically  !
 ! A26   A(5,14,15)            107.9115         calculate D2E/DX2 analytically  !
 ! A27   A(5,14,16)            109.0599         calculate D2E/DX2 analytically  !
 ! A28   A(11,14,15)           109.1937         calculate D2E/DX2 analytically  !
 ! A29   A(11,14,16)           110.5011         calculate D2E/DX2 analytically  !
 ! A30   A(15,14,16)           106.708          calculate D2E/DX2 analytically  !
 ! D1    D(3,1,2,4)             -0.0202         calculate D2E/DX2 analytically  !
 ! D2    D(3,1,2,5)            179.8919         calculate D2E/DX2 analytically  !
 ! D3    D(8,1,2,4)           -179.7951         calculate D2E/DX2 analytically  !
 ! D4    D(8,1,2,5)              0.1171         calculate D2E/DX2 analytically  !
 ! D5    D(2,1,8,9)             73.3049         calculate D2E/DX2 analytically  !
 ! D6    D(2,1,8,10)          -169.3229         calculate D2E/DX2 analytically  !
 ! D7    D(2,1,8,11)           -46.5148         calculate D2E/DX2 analytically  !
 ! D8    D(3,1,8,9)           -106.474          calculate D2E/DX2 analytically  !
 ! D9    D(3,1,8,10)            10.8982         calculate D2E/DX2 analytically  !
 ! D10   D(3,1,8,11)           133.7063         calculate D2E/DX2 analytically  !
 ! D11   D(1,2,5,6)            169.3568         calculate D2E/DX2 analytically  !
 ! D12   D(1,2,5,7)            -73.2099         calculate D2E/DX2 analytically  !
 ! D13   D(1,2,5,14)            46.6176         calculate D2E/DX2 analytically  !
 ! D14   D(4,2,5,6)            -10.7294         calculate D2E/DX2 analytically  !
 ! D15   D(4,2,5,7)            106.7039         calculate D2E/DX2 analytically  !
 ! D16   D(4,2,5,14)          -133.4687         calculate D2E/DX2 analytically  !
 ! D17   D(2,5,14,11)          -44.3833         calculate D2E/DX2 analytically  !
 ! D18   D(2,5,14,15)           76.5943         calculate D2E/DX2 analytically  !
 ! D19   D(2,5,14,16)         -167.8536         calculate D2E/DX2 analytically  !
 ! D20   D(6,5,14,11)         -168.0213         calculate D2E/DX2 analytically  !
 ! D21   D(6,5,14,15)          -47.0437         calculate D2E/DX2 analytically  !
 ! D22   D(6,5,14,16)           68.5084         calculate D2E/DX2 analytically  !
 ! D23   D(7,5,14,11)           75.553          calculate D2E/DX2 analytically  !
 ! D24   D(7,5,14,15)         -163.4695         calculate D2E/DX2 analytically  !
 ! D25   D(7,5,14,16)          -47.9173         calculate D2E/DX2 analytically  !
 ! D26   D(1,8,11,12)          167.0279         calculate D2E/DX2 analytically  !
 ! D27   D(1,8,11,13)          -77.4666         calculate D2E/DX2 analytically  !
 ! D28   D(1,8,11,14)           43.5712         calculate D2E/DX2 analytically  !
 ! D29   D(9,8,11,12)           47.1167         calculate D2E/DX2 analytically  !
 ! D30   D(9,8,11,13)          162.6222         calculate D2E/DX2 analytically  !
 ! D31   D(9,8,11,14)          -76.34           calculate D2E/DX2 analytically  !
 ! D32   D(10,8,11,12)         -69.2485         calculate D2E/DX2 analytically  !
 ! D33   D(10,8,11,13)          46.257          calculate D2E/DX2 analytically  !
 ! D34   D(10,8,11,14)         167.2948         calculate D2E/DX2 analytically  !
 ! D35   D(8,11,14,5)            0.5701         calculate D2E/DX2 analytically  !
 ! D36   D(8,11,14,15)        -119.6801         calculate D2E/DX2 analytically  !
 ! D37   D(8,11,14,16)         123.2445         calculate D2E/DX2 analytically  !
 ! D38   D(12,11,14,5)        -122.0451         calculate D2E/DX2 analytically  !
 ! D39   D(12,11,14,15)        117.7046         calculate D2E/DX2 analytically  !
 ! D40   D(12,11,14,16)          0.6293         calculate D2E/DX2 analytically  !
 ! D41   D(13,11,14,5)         120.9133         calculate D2E/DX2 analytically  !
 ! D42   D(13,11,14,15)          0.663          calculate D2E/DX2 analytically  !
 ! D43   D(13,11,14,16)       -116.4123         calculate D2E/DX2 analytically  !
 --------------------------------------------------------------------------------
 Trust Radius=3.00D-01 FncErr=1.00D-07 GrdErr=1.00D-06 EigMax=2.50D+02 EigMin=1.00D-04
 Number of steps in this run=     99 maximum allowed number of steps=    100.
 GradGradGradGradGradGradGradGradGradGradGradGradGradGradGradGradGradGrad

 Leave Link  103 at Thu Mar 12 15:06:28 2020, MaxMem= 12884901888 cpu:               0.3 elap:               0.0
 (Enter /project/qslin/software/g16/l202.exe)
                          Input orientation:                          
 ---------------------------------------------------------------------
 Center     Atomic      Atomic             Coordinates (Angstroms)
 Number     Number       Type             X           Y           Z
 ---------------------------------------------------------------------
      1          6           0       -0.628675    1.322288   -0.189530
      2          6           0        0.709284    1.281204   -0.186895
      3          1           0       -1.172100    2.184447   -0.571192
      4          1           0        1.306033    2.108258   -0.566628
      5          6           0        1.393943    0.048609    0.362596
      6          1           0        2.467437    0.053062    0.141019
      7          1           0        1.299499    0.043278    1.460769
      8          6           0       -1.389409    0.135222    0.359577
      9          1           0       -1.300340    0.128516    1.458166
     10          1           0       -2.459701    0.204371    0.133373
     11          6           0       -0.815650   -1.195415   -0.198835
     12          1           0       -1.222338   -2.031560    0.383676
     13          1           0       -1.183478   -1.317994   -1.224869
     14          6           0        0.741702   -1.240901   -0.204511
     15          1           0        1.094862   -1.372627   -1.234568
     16          1           0        1.102952   -2.105793    0.365844
 ---------------------------------------------------------------------
                    Distance matrix (angstroms):
                    1          2          3          4          5
     1  C    0.000000
     2  C    1.338592   0.000000
     3  H    1.088253   2.122060   0.000000
     4  H    2.122038   1.088267   2.479308   0.000000
     5  C    2.453179   1.513271   3.466748   2.261269   0.000000
     6  H    3.362455   2.169553   4.277415   2.464438   1.096132
     7  H    2.842043   2.143738   3.849970   2.893877   1.102240
     8  C    1.513063   2.452839   2.261167   3.466430   2.784701
     9  H    2.142692   2.841391   2.891642   3.848682   2.909608
    10  H    2.169484   3.362232   2.464757   4.277329   3.863596
    11  C    2.524653   2.908472   3.418943   3.943484   2.597133
    12  H    3.453881   3.876999   4.323079   4.943059   3.342525
    13  H    2.889779   3.378723   3.562936   4.286041   3.321257
    14  C    2.906561   2.522375   3.940825   3.415621   1.552374
    15  H    3.365301   2.879081   4.269890   3.550676   2.158771
    16  H    3.880556   3.454308   4.945711   4.320761   2.173967
                    6          7          8          9         10
     6  H    0.000000
     7  H    1.762361   0.000000
     8  C    3.863907   2.907113   0.000000
     9  H    3.992081   2.601237   1.102214   0.000000
    10  H    4.929467   3.989927   1.096118   1.762086   0.000000
    11  C    3.528860   2.960152   1.552939   2.175631   2.184643
    12  H    4.244876   3.438713   2.173347   2.413823   2.567704
    13  H    4.132145   3.902677   2.159795   3.050365   2.406483
    14  C    2.184466   2.175640   2.598758   2.968119   3.528733
    15  H    2.410143   3.051476   3.314590   3.904003   4.122269
    16  H    2.563790   2.419917   3.351724   3.458485   4.252458
                   11         12         13         14         15
    11  C    0.000000
    12  H    1.097202   0.000000
    13  H    1.096845   1.760143   0.000000
    14  C    1.558026   2.197398   2.180227   0.000000
    15  H    2.180414   2.902124   2.279016   1.096855   0.000000
    16  H    2.197427   2.326543   2.894608   1.097199   1.760374
                   16
    16  H    0.000000
 Stoichiometry    C6H10
 Framework group  C1[X(C6H10)]
 Deg. of freedom    42
 Full point group                 C1      NOp   1
 Largest Abelian subgroup         C1      NOp   1
 Largest concise Abelian subgroup C1      NOp   1
                         Standard orientation:                         
 ---------------------------------------------------------------------
 Center     Atomic      Atomic             Coordinates (Angstroms)
 Number     Number       Type             X           Y           Z
 ---------------------------------------------------------------------
      1          6           0       -0.628618    1.322315   -0.189530
      2          6           0        0.709339    1.281174   -0.186895
      3          1           0       -1.172006    2.184497   -0.571192
      4          1           0        1.306124    2.108202   -0.566628
      5          6           0        1.393945    0.048549    0.362596
      6          1           0        2.467439    0.052956    0.141019
      7          1           0        1.299501    0.043222    1.460769
      8          6           0       -1.389403    0.135282    0.359577
      9          1           0       -1.300334    0.128572    1.458166
     10          1           0       -2.459692    0.204477    0.133373
     11          6           0       -0.815701   -1.195380   -0.198835
     12          1           0       -1.222425   -2.031508    0.383676
     13          1           0       -1.183534   -1.317943   -1.224869
     14          6           0        0.741649   -1.240933   -0.204511
     15          1           0        1.094803   -1.372674   -1.234568
     16          1           0        1.102862   -2.105840    0.365844
 ---------------------------------------------------------------------
 Rotational constants (GHZ):           4.6277247           4.5365347           2.6040546
 Leave Link  202 at Thu Mar 12 15:06:28 2020, MaxMem= 12884901888 cpu:               0.3 elap:               0.0
 (Enter /project/qslin/software/g16/l301.exe)
 Standard basis: 6-31+G(2df,p) (6D, 7F)
 Ernie: Thresh=  0.10000D-02 Tol=  0.10000D-05 Strict=F.
 There are   260 symmetry adapted cartesian basis functions of A   symmetry.
 There are   242 symmetry adapted basis functions of A   symmetry.
   242 basis functions,   358 primitive gaussians,   260 cartesian basis functions
    23 alpha electrons       23 beta electrons
       nuclear repulsion energy       235.9884635945 Hartrees.
 IExCor= 3226 DFT=T Ex+Corr=BMK ExCW=0 ScaHFX=  0.420000
 ScaDFX=  1.000000  1.000000  1.000000  1.000000 ScalE2=  1.000000  1.000000
 IRadAn=      5 IRanWt=     -1 IRanGd=            0 ICorTp=0 IEmpDi=  4
 NAtoms=   16 NActive=   16 NUniq=   16 SFac= 1.00D+00 NAtFMM=   60 NAOKFM=F Big=F
 Integral buffers will be    131072 words long.
 Raffenetti 2 integral format.
 Two-electron integral symmetry is turned on.
 Leave Link  301 at Thu Mar 12 15:06:28 2020, MaxMem= 12884901888 cpu:               0.9 elap:               0.1
 (Enter /project/qslin/software/g16/l302.exe)
 NPDir=0 NMtPBC=     1 NCelOv=     1 NCel=       1 NClECP=     1 NCelD=      1
         NCelK=      1 NCelE2=     1 NClLst=     1 CellRange=     0.0.
 One-electron integrals computed using PRISM.
 One-electron integral symmetry used in STVInt
 NBasis=   242 RedAO= T EigKep=  1.97D-05  NBF=   242
 NBsUse=   242 1.00D-06 EigRej= -1.00D+00 NBFU=   242
 Precomputing XC quadrature grid using
 IXCGrd= 4 IRadAn=           5 IRanWt=          -1 IRanGd=           0 AccXCQ= 0.00D+00.
 Generated NRdTot=       0 NPtTot=           0 NUsed=           0 NTot=          32
 NSgBfM=   260   260   260   260   260 MxSgAt=    16 MxSgA2=    16.
 Leave Link  302 at Thu Mar 12 15:06:28 2020, MaxMem= 12884901888 cpu:               3.7 elap:               0.3
 (Enter /project/qslin/software/g16/l303.exe)
 DipDrv:  MaxL=1.
 Leave Link  303 at Thu Mar 12 15:06:28 2020, MaxMem= 12884901888 cpu:               1.5 elap:               0.1
 (Enter /project/qslin/software/g16/l401.exe)
 ExpMin= 4.38D-02 ExpMax= 3.05D+03 ExpMxC= 4.57D+02 IAcc=3 IRadAn=         5 AccDes= 0.00D+00
 Harris functional with IExCor= 1009 and IRadAn=       5 diagonalized for initial guess.
 HarFok:  IExCor= 1009 AccDes= 0.00D+00 IRadAn=         5 IDoV= 1 UseB2=F ITyADJ=14
 ICtDFT=  3500011 ScaDFX=  1.000000  1.000000  1.000000  1.000000
 FoFCou: FMM=F IPFlag=           0 FMFlag=      100000 FMFlg1=           0
         NFxFlg=           0 DoJE=T BraDBF=F KetDBF=T FulRan=T
         wScrn=  0.000000 ICntrl=       500 IOpCl=  0 I1Cent=   200000004 NGrid=           0
         NMat0=    1 NMatS0=      1 NMatT0=    0 NMatD0=    1 NMtDS0=    0 NMtDT0=    0
 Petite list used in FoFCou.
 Harris En= -234.496567892656    
 JPrj=0 DoOrth=F DoCkMO=F.
 Leave Link  401 at Thu Mar 12 15:06:29 2020, MaxMem= 12884901888 cpu:              14.6 elap:               1.0
 (Enter /project/qslin/software/g16/l502.exe)
 Integral symmetry usage will be decided dynamically.
 Closed shell SCF:
 Using DIIS extrapolation, IDIIS=  1040.
 NGot= 12884901888 LenX= 12884759986 LenY= 12884691945
 Requested convergence on RMS density matrix=1.00D-08 within 128 cycles.
 Requested convergence on MAX density matrix=1.00D-06.
 Requested convergence on             energy=1.00D-06.
 No special actions if energy rises.
 Fock matrices will be formed incrementally for  20 cycles.

 Cycle   1  Pass 1  IDiag  1:
 FoFJK:  IHMeth= 1 ICntrl=       0 DoSepK=F KAlg= 0 I1Cent=           0 FoldK=F
 IRaf= 990000000 NMat=       1 IRICut=       1 DoRegI=T DoRafI=F ISym2E= 0 IDoP0=0 IntGTp=1.
 FoFCou: FMM=F IPFlag=           0 FMFlag=      100000 FMFlg1=           0
         NFxFlg=           0 DoJE=F BraDBF=F KetDBF=F FulRan=T
         wScrn=  0.000000 ICntrl=         0 IOpCl=  0 I1Cent=           0 NGrid=           0
         NMat0=    1 NMatS0=      1 NMatT0=    0 NMatD0=    1 NMtDS0=    0 NMtDT0=    0
 Symmetry not used in FoFCou.
 E= -234.295861941235    
 DIIS: error= 2.32D-02 at cycle   1 NSaved=   1.
 NSaved= 1 IEnMin= 1 EnMin= -234.295861941235     IErMin= 1 ErrMin= 2.32D-02
 ErrMax= 2.32D-02  0.00D+00 EMaxC= 1.00D-01 BMatC= 1.69D-01 BMatP= 1.69D-01
 IDIUse=3 WtCom= 7.68D-01 WtEn= 2.32D-01
 Coeff-Com:  0.100D+01
 Coeff-En:   0.100D+01
 Coeff:      0.100D+01
 Gap=     0.320 Goal=   None    Shift=    0.000
 GapD=    0.320 DampG=1.000 DampE=0.500 DampFc=0.5000 IDamp=-1.
 Damping current iteration by 5.00D-01
 RMSDP=7.00D-03 MaxDP=1.51D-01              OVMax= 1.68D-01

 Cycle   2  Pass 1  IDiag  1:
 RMSU=  3.45D-03    CP:  9.58D-01
 E= -234.388399468792     Delta-E=       -0.092537527557 Rises=F Damp=T
 DIIS: error= 4.83D-03 at cycle   2 NSaved=   2.
 NSaved= 2 IEnMin= 2 EnMin= -234.388399468792     IErMin= 2 ErrMin= 4.83D-03
 ErrMax= 4.83D-03  0.00D+00 EMaxC= 1.00D-01 BMatC= 1.02D-02 BMatP= 1.69D-01
 IDIUse=3 WtCom= 9.52D-01 WtEn= 4.83D-02
 Coeff-Com: -0.137D-01 0.101D+01
 Coeff-En:   0.000D+00 0.100D+01
 Coeff:     -0.130D-01 0.101D+01
 Gap=     0.335 Goal=   None    Shift=    0.000
 RMSDP=2.28D-03 MaxDP=1.67D-01 DE=-9.25D-02 OVMax= 8.47D-02

 Cycle   3  Pass 1  IDiag  1:
 RMSU=  2.13D-03    CP:  9.30D-01  7.99D-01
 E= -234.485766347992     Delta-E=       -0.097366879200 Rises=F Damp=F
 DIIS: error= 3.29D-03 at cycle   3 NSaved=   3.
 NSaved= 3 IEnMin= 3 EnMin= -234.485766347992     IErMin= 3 ErrMin= 3.29D-03
 ErrMax= 3.29D-03  0.00D+00 EMaxC= 1.00D-01 BMatC= 2.06D-03 BMatP= 1.02D-02
 IDIUse=3 WtCom= 9.67D-01 WtEn= 3.29D-02
 Coeff-Com: -0.459D-01 0.289D+00 0.757D+00
 Coeff-En:   0.000D+00 0.000D+00 0.100D+01
 Coeff:     -0.444D-01 0.279D+00 0.765D+00
 Gap=     0.315 Goal=   None    Shift=    0.000
 RMSDP=3.79D-04 MaxDP=1.32D-02 DE=-9.74D-02 OVMax= 9.07D-03

 Cycle   4  Pass 1  IDiag  1:
 RMSU=  3.77D-04    CP:  9.29D-01  7.87D-01  9.99D-01
 E= -234.487575510418     Delta-E=       -0.001809162426 Rises=F Damp=F
 DIIS: error= 4.85D-04 at cycle   4 NSaved=   4.
 NSaved= 4 IEnMin= 4 EnMin= -234.487575510418     IErMin= 4 ErrMin= 4.85D-04
 ErrMax= 4.85D-04  0.00D+00 EMaxC= 1.00D-01 BMatC= 6.21D-05 BMatP= 2.06D-03
 IDIUse=3 WtCom= 9.95D-01 WtEn= 4.85D-03
 Coeff-Com: -0.577D-02 0.993D-02 0.158D+00 0.838D+00
 Coeff-En:   0.000D+00 0.000D+00 0.000D+00 0.100D+01
 Coeff:     -0.574D-02 0.988D-02 0.157D+00 0.838D+00
 Gap=     0.315 Goal=   None    Shift=    0.000
 RMSDP=1.12D-04 MaxDP=3.90D-03 DE=-1.81D-03 OVMax= 1.73D-03

 Cycle   5  Pass 1  IDiag  1:
 RMSU=  8.33D-05    CP:  9.27D-01  7.67D-01  1.01D+00  1.01D+00
 E= -234.487633132231     Delta-E=       -0.000057621813 Rises=F Damp=F
 DIIS: error= 1.07D-04 at cycle   5 NSaved=   5.
 NSaved= 5 IEnMin= 5 EnMin= -234.487633132231     IErMin= 5 ErrMin= 1.07D-04
 ErrMax= 1.07D-04  0.00D+00 EMaxC= 1.00D-01 BMatC= 2.64D-06 BMatP= 6.21D-05
 IDIUse=3 WtCom= 9.99D-01 WtEn= 1.07D-03
 Coeff-Com: -0.119D-02 0.577D-03 0.389D-01 0.262D+00 0.699D+00
 Coeff-En:   0.000D+00 0.000D+00 0.000D+00 0.000D+00 0.100D+01
 Coeff:     -0.119D-02 0.577D-03 0.388D-01 0.262D+00 0.700D+00
 Gap=     0.315 Goal=   None    Shift=    0.000
 RMSDP=1.94D-05 MaxDP=4.41D-04 DE=-5.76D-05 OVMax= 5.74D-04

 Cycle   6  Pass 1  IDiag  1:
 RMSU=  1.42D-05    CP:  9.27D-01  7.64D-01  1.01D+00  1.02D+00  1.03D+00
 E= -234.487635623111     Delta-E=       -0.000002490881 Rises=F Damp=F
 DIIS: error= 3.78D-05 at cycle   6 NSaved=   6.
 NSaved= 6 IEnMin= 6 EnMin= -234.487635623111     IErMin= 6 ErrMin= 3.78D-05
 ErrMax= 3.78D-05  0.00D+00 EMaxC= 1.00D-01 BMatC= 4.22D-07 BMatP= 2.64D-06
 IDIUse=1 WtCom= 1.00D+00 WtEn= 0.00D+00
 Coeff-Com:  0.479D-03-0.143D-02-0.878D-02-0.183D-01 0.275D+00 0.753D+00
 Coeff:      0.479D-03-0.143D-02-0.878D-02-0.183D-01 0.275D+00 0.753D+00
 Gap=     0.315 Goal=   None    Shift=    0.000
 RMSDP=9.14D-06 MaxDP=2.95D-04 DE=-2.49D-06 OVMax= 1.95D-04

 Cycle   7  Pass 1  IDiag  1:
 RMSU=  3.04D-06    CP:  9.27D-01  7.62D-01  1.01D+00  1.03D+00  1.10D+00
                    CP:  9.00D-01
 E= -234.487636085946     Delta-E=       -0.000000462834 Rises=F Damp=F
 DIIS: error= 2.55D-06 at cycle   7 NSaved=   7.
 NSaved= 7 IEnMin= 7 EnMin= -234.487636085946     IErMin= 7 ErrMin= 2.55D-06
 ErrMax= 2.55D-06  0.00D+00 EMaxC= 1.00D-01 BMatC= 3.24D-09 BMatP= 4.22D-07
 IDIUse=1 WtCom= 1.00D+00 WtEn= 0.00D+00
 Coeff-Com:  0.131D-03-0.235D-03-0.263D-02-0.122D-01 0.891D-02 0.884D-01
 Coeff-Com:  0.918D+00
 Coeff:      0.131D-03-0.235D-03-0.263D-02-0.122D-01 0.891D-02 0.884D-01
 Coeff:      0.918D+00
 Gap=     0.315 Goal=   None    Shift=    0.000
 RMSDP=1.36D-06 MaxDP=4.02D-05 DE=-4.63D-07 OVMax= 3.31D-05

 Cycle   8  Pass 1  IDiag  1:
 RMSU=  6.85D-07    CP:  9.27D-01  7.62D-01  1.01D+00  1.03D+00  1.11D+00
                    CP:  9.25D-01  1.16D+00
 E= -234.487636090172     Delta-E=       -0.000000004226 Rises=F Damp=F
 DIIS: error= 9.57D-07 at cycle   8 NSaved=   8.
 NSaved= 8 IEnMin= 8 EnMin= -234.487636090172     IErMin= 8 ErrMin= 9.57D-07
 ErrMax= 9.57D-07  0.00D+00 EMaxC= 1.00D-01 BMatC= 6.04D-10 BMatP= 3.24D-09
 IDIUse=1 WtCom= 1.00D+00 WtEn= 0.00D+00
 Coeff-Com:  0.395D-04-0.527D-04-0.732D-03-0.415D-02-0.611D-02 0.804D-02
 Coeff-Com:  0.344D+00 0.659D+00
 Coeff:      0.395D-04-0.527D-04-0.732D-03-0.415D-02-0.611D-02 0.804D-02
 Coeff:      0.344D+00 0.659D+00
 Gap=     0.315 Goal=   None    Shift=    0.000
 RMSDP=2.58D-07 MaxDP=8.76D-06 DE=-4.23D-09 OVMax= 1.49D-05

 Cycle   9  Pass 1  IDiag  1:
 RMSU=  1.91D-07    CP:  9.27D-01  7.62D-01  1.01D+00  1.03D+00  1.11D+00
                    CP:  9.27D-01  1.21D+00  1.07D+00
 E= -234.487636090692     Delta-E=       -0.000000000520 Rises=F Damp=F
 DIIS: error= 5.42D-07 at cycle   9 NSaved=   9.
 NSaved= 9 IEnMin= 9 EnMin= -234.487636090692     IErMin= 9 ErrMin= 5.42D-07
 ErrMax= 5.42D-07  0.00D+00 EMaxC= 1.00D-01 BMatC= 1.34D-10 BMatP= 6.04D-10
 IDIUse=1 WtCom= 1.00D+00 WtEn= 0.00D+00
 Coeff-Com:  0.269D-05 0.295D-05 0.148D-04-0.286D-03-0.436D-02-0.899D-02
 Coeff-Com:  0.338D-01 0.333D+00 0.647D+00
 Coeff:      0.269D-05 0.295D-05 0.148D-04-0.286D-03-0.436D-02-0.899D-02
 Coeff:      0.338D-01 0.333D+00 0.647D+00
 Gap=     0.315 Goal=   None    Shift=    0.000
 RMSDP=1.16D-07 MaxDP=4.56D-06 DE=-5.20D-10 OVMax= 6.70D-06

 Cycle  10  Pass 1  IDiag  1:
 RMSU=  5.68D-08    CP:  9.27D-01  7.62D-01  1.01D+00  1.03D+00  1.11D+00
                    CP:  9.28D-01  1.23D+00  1.18D+00  8.88D-01
 E= -234.487636090829     Delta-E=       -0.000000000137 Rises=F Damp=F
 DIIS: error= 1.11D-07 at cycle  10 NSaved=  10.
 NSaved=10 IEnMin=10 EnMin= -234.487636090829     IErMin=10 ErrMin= 1.11D-07
 ErrMax= 1.11D-07  0.00D+00 EMaxC= 1.00D-01 BMatC= 8.33D-12 BMatP= 1.34D-10
 IDIUse=1 WtCom= 1.00D+00 WtEn= 0.00D+00
 Coeff-Com: -0.941D-06 0.353D-05 0.537D-04 0.154D-03-0.140D-02-0.428D-02
 Coeff-Com: -0.899D-02 0.100D+00 0.284D+00 0.630D+00
 Coeff:     -0.941D-06 0.353D-05 0.537D-04 0.154D-03-0.140D-02-0.428D-02
 Coeff:     -0.899D-02 0.100D+00 0.284D+00 0.630D+00
 Gap=     0.315 Goal=   None    Shift=    0.000
 RMSDP=3.16D-08 MaxDP=9.30D-07 DE=-1.37D-10 OVMax= 1.49D-06

 Cycle  11  Pass 1  IDiag  1:
 RMSU=  1.64D-08    CP:  9.27D-01  7.62D-01  1.01D+00  1.03D+00  1.11D+00
                    CP:  9.28D-01  1.23D+00  1.21D+00  9.52D-01  9.06D-01
 E= -234.487636090838     Delta-E=       -0.000000000009 Rises=F Damp=F
 DIIS: error= 4.67D-08 at cycle  11 NSaved=  11.
 NSaved=11 IEnMin=11 EnMin= -234.487636090838     IErMin=11 ErrMin= 4.67D-08
 ErrMax= 4.67D-08  0.00D+00 EMaxC= 1.00D-01 BMatC= 6.66D-13 BMatP= 8.33D-12
 IDIUse=1 WtCom= 1.00D+00 WtEn= 0.00D+00
 Coeff-Com: -0.408D-06 0.288D-06 0.144D-04 0.851D-04 0.157D-03-0.104D-03
 Coeff-Com: -0.757D-02-0.958D-02 0.131D-01 0.234D+00 0.770D+00
 Coeff:     -0.408D-06 0.288D-06 0.144D-04 0.851D-04 0.157D-03-0.104D-03
 Coeff:     -0.757D-02-0.958D-02 0.131D-01 0.234D+00 0.770D+00
 Gap=     0.315 Goal=   None    Shift=    0.000
 RMSDP=1.43D-08 MaxDP=4.91D-07 DE=-8.92D-12 OVMax= 3.71D-07

 Cycle  12  Pass 1  IDiag  1:
 RMSU=  6.87D-09    CP:  9.27D-01  7.62D-01  1.01D+00  1.03D+00  1.11D+00
                    CP:  9.28D-01  1.23D+00  1.22D+00  9.65D-01  9.44D-01
                    CP:  1.04D+00
 E= -234.487636090840     Delta-E=       -0.000000000002 Rises=F Damp=F
 DIIS: error= 8.34D-09 at cycle  12 NSaved=  12.
 NSaved=12 IEnMin=12 EnMin= -234.487636090840     IErMin=12 ErrMin= 8.34D-09
 ErrMax= 8.34D-09  0.00D+00 EMaxC= 1.00D-01 BMatC= 1.54D-14 BMatP= 6.66D-13
 IDIUse=1 WtCom= 1.00D+00 WtEn= 0.00D+00
 Coeff-Com: -0.407D-07-0.904D-07 0.962D-06 0.117D-04 0.836D-04 0.147D-03
 Coeff-Com: -0.131D-02-0.609D-02-0.946D-02 0.206D-01 0.165D+00 0.831D+00
 Coeff:     -0.407D-07-0.904D-07 0.962D-06 0.117D-04 0.836D-04 0.147D-03
 Coeff:     -0.131D-02-0.609D-02-0.946D-02 0.206D-01 0.165D+00 0.831D+00
 Gap=     0.315 Goal=   None    Shift=    0.000
 RMSDP=2.81D-09 MaxDP=9.68D-08 DE=-1.93D-12 OVMax= 5.99D-08

 SCF Done:  E(RBMK) =  -234.487636091     A.U. after   12 cycles
            NFock= 12  Conv=0.28D-08     -V/T= 2.0098
 KE= 2.322200582829D+02 PE=-1.014027463490D+03 EE= 3.113313055218D+02
 Leave Link  502 at Thu Mar 12 15:06:49 2020, MaxMem= 12884901888 cpu:             306.6 elap:              19.3
 (Enter /project/qslin/software/g16/l801.exe)
 DoSCS=F DFT=T ScalE2(SS,OS)=  1.000000  1.000000
 Range of M.O.s used for correlation:     1   242
 NBasis=   242 NAE=    23 NBE=    23 NFC=     0 NFV=     0
 NROrb=    242 NOA=    23 NOB=    23 NVA=   219 NVB=   219

 **** Warning!!: The largest alpha MO coefficient is  0.62819778D+02

 Leave Link  801 at Thu Mar 12 15:06:49 2020, MaxMem= 12884901888 cpu:               0.8 elap:               0.1
 (Enter /project/qslin/software/g16/l1101.exe)
 Using compressed storage, NAtomX=    16.
 Will process     17 centers per pass.
 Leave Link 1101 at Thu Mar 12 15:06:49 2020, MaxMem= 12884901888 cpu:               4.4 elap:               0.3
 (Enter /project/qslin/software/g16/l1102.exe)
 Symmetrizing basis deriv contribution to polar:
 IMax=3 JMax=2 DiffMx= 0.00D+00
 Leave Link 1102 at Thu Mar 12 15:06:50 2020, MaxMem= 12884901888 cpu:               1.8 elap:               0.1
 (Enter /project/qslin/software/g16/l1110.exe)
 Forming Gx(P) for the SCF density, NAtomX=    16.
 Integral derivatives from FoFJK, PRISM(SPDF).
 Do as many integral derivatives as possible in FoFJK.
 G2DrvN: MDV=   12884900600.
 G2DrvN: will do    17 centers at a time, making    1 passes.
 Calling FoFCou, ICntrl=  3107 FMM=F I1Cent=   0 AccDes= 0.00D+00.
 FoFJK:  IHMeth= 1 ICntrl=    3107 DoSepK=F KAlg= 0 I1Cent=           0 FoldK=F
 IRaf=         0 NMat=       1 IRICut=       1 DoRegI=T DoRafI=F ISym2E= 0 IDoP0=0 IntGTp=1.
 FoFCou: FMM=F IPFlag=           0 FMFlag=      100000 FMFlg1=           0
         NFxFlg=           0 DoJE=F BraDBF=F KetDBF=F FulRan=T
         wScrn=  0.000000 ICntrl=      3107 IOpCl=  0 I1Cent=           0 NGrid=           0
         NMat0=    1 NMatS0=      1 NMatT0=    0 NMatD0=    1 NMtDS0=    0 NMtDT0=    0
 Symmetry not used in FoFCou.
 End of G2Drv F.D. properties file   721 does not exist.
 End of G2Drv F.D. properties file   722 does not exist.
 End of G2Drv F.D. properties file   788 does not exist.
 Leave Link 1110 at Thu Mar 12 15:07:29 2020, MaxMem= 12884901888 cpu:             621.7 elap:              39.0
 (Enter /project/qslin/software/g16/l1002.exe)
 Minotr:  Closed shell wavefunction.
          IDoAtm=1111111111111111
          Direct CPHF calculation.
          Differentiating once with respect to electric field.
                with respect to dipole field.
          Differentiating once with respect to nuclear coordinates.
          Requested convergence is 1.0D-08 RMS, and 1.0D-07 maximum.
          Secondary convergence is 1.0D-12 RMS, and 1.0D-12 maximum.
          NewPWx=T KeepS1=F KeepF1=F KeepIn=T MapXYZ=F SortEE=F KeepMc=T.
         4839 words used for storage of precomputed grid.
 Keep R1 ints in memory in canonical form, NReq=449713911.
 FoFCou: FMM=F IPFlag=           0 FMFlag=           0 FMFlg1=           0
         NFxFlg=           0 DoJE=F BraDBF=F KetDBF=F FulRan=T
         wScrn=  0.000000 ICntrl=       600 IOpCl=  0 I1Cent=           0 NGrid=           0
         NMat0=    1 NMatS0=  29403 NMatT0=    0 NMatD0=    1 NMtDS0=    0 NMtDT0=    0
 Symmetry not used in FoFCou.
 Two-electron integral symmetry not used.
          MDV=   12884901888 using IRadAn=       1.
          Solving linear equations simultaneously, MaxMat=       0.
          There are    51 degrees of freedom in the 1st order CPHF.  IDoFFX=6 NUNeed=     3.
     48 vectors produced by pass  0 Test12= 9.88D-15 1.96D-09 XBig12= 4.65D+01 4.21D+00.
 AX will form    48 AO Fock derivatives at one time.
     48 vectors produced by pass  1 Test12= 9.88D-15 1.96D-09 XBig12= 5.68D+00 5.87D-01.
     48 vectors produced by pass  2 Test12= 9.88D-15 1.96D-09 XBig12= 1.17D-01 5.15D-02.
     48 vectors produced by pass  3 Test12= 9.88D-15 1.96D-09 XBig12= 5.62D-04 3.11D-03.
     48 vectors produced by pass  4 Test12= 9.88D-15 1.96D-09 XBig12= 2.36D-06 1.96D-04.
     48 vectors produced by pass  5 Test12= 9.88D-15 1.96D-09 XBig12= 8.61D-09 1.39D-05.
     21 vectors produced by pass  6 Test12= 9.88D-15 1.96D-09 XBig12= 2.75D-11 6.48D-07.
      3 vectors produced by pass  7 Test12= 9.88D-15 1.96D-09 XBig12= 8.81D-14 4.24D-08.
      1 vectors produced by pass  8 Test12= 9.88D-15 1.96D-09 XBig12= 2.85D-16 2.04D-09.
 InvSVY:  IOpt=1 It=  1 EMax= 2.66D-15
 Solved reduced A of dimension   313 with    51 vectors.
 FullF1:  Do perturbations      1 to       3.
 Isotropic polarizability for W=    0.000000       67.62 Bohr**3.
 End of Minotr F.D. properties file   721 does not exist.
 End of Minotr F.D. properties file   722 does not exist.
 End of Minotr F.D. properties file   788 does not exist.
 Leave Link 1002 at Thu Mar 12 15:08:27 2020, MaxMem= 12884901888 cpu:             916.0 elap:              58.2
 (Enter /project/qslin/software/g16/l601.exe)
 Copying SCF densities to generalized density rwf, IOpCl= 0 IROHF=0.

 **********************************************************************

            Population analysis using the SCF density.

 **********************************************************************

 Orbital symmetries:
       Occupied  (A) (A) (A) (A) (A) (A) (A) (A) (A) (A) (A) (A)
                 (A) (A) (A) (A) (A) (A) (A) (A) (A) (A) (A)
       Virtual   (A) (A) (A) (A) (A) (A) (A) (A) (A) (A) (A) (A)
                 (A) (A) (A) (A) (A) (A) (A) (A) (A) (A) (A) (A)
                 (A) (A) (A) (A) (A) (A) (A) (A) (A) (A) (A) (A)
                 (A) (A) (A) (A) (A) (A) (A) (A) (A) (A) (A) (A)
                 (A) (A) (A) (A) (A) (A) (A) (A) (A) (A) (A) (A)
                 (A) (A) (A) (A) (A) (A) (A) (A) (A) (A) (A) (A)
                 (A) (A) (A) (A) (A) (A) (A) (A) (A) (A) (A) (A)
                 (A) (A) (A) (A) (A) (A) (A) (A) (A) (A) (A) (A)
                 (A) (A) (A) (A) (A) (A) (A) (A) (A) (A) (A) (A)
                 (A) (A) (A) (A) (A) (A) (A) (A) (A) (A) (A) (A)
                 (A) (A) (A) (A) (A) (A) (A) (A) (A) (A) (A) (A)
                 (A) (A) (A) (A) (A) (A) (A) (A) (A) (A) (A) (A)
                 (A) (A) (A) (A) (A) (A) (A) (A) (A) (A) (A) (A)
                 (A) (A) (A) (A) (A) (A) (A) (A) (A) (A) (A) (A)
                 (A) (A) (A) (A) (A) (A) (A) (A) (A) (A) (A) (A)
                 (A) (A) (A) (A) (A) (A) (A) (A) (A) (A) (A) (A)
                 (A) (A) (A) (A) (A) (A) (A) (A) (A) (A) (A) (A)
                 (A) (A) (A) (A) (A) (A) (A) (A) (A) (A) (A) (A)
                 (A) (A) (A)
 The electronic state is 1-A.
 Alpha  occ. eigenvalues --  -10.47164 -10.47162 -10.46941 -10.46914 -10.46860
 Alpha  occ. eigenvalues --  -10.46755  -0.90030  -0.80170  -0.80092  -0.67764
 Alpha  occ. eigenvalues --   -0.64783  -0.55178  -0.54159  -0.51941  -0.44249
 Alpha  occ. eigenvalues --   -0.44225  -0.43681  -0.41646  -0.41618  -0.35869
 Alpha  occ. eigenvalues --   -0.35232  -0.33554  -0.27561
 Alpha virt. eigenvalues --    0.03980   0.05100   0.05848   0.06588   0.06862
 Alpha virt. eigenvalues --    0.07428   0.09081   0.10042   0.10837   0.11861
 Alpha virt. eigenvalues --    0.13351   0.14110   0.14660   0.14698   0.15531
 Alpha virt. eigenvalues --    0.15589   0.16817   0.17944   0.18676   0.19383
 Alpha virt. eigenvalues --    0.20356   0.20453   0.21935   0.22770   0.23386
 Alpha virt. eigenvalues --    0.23913   0.25489   0.25841   0.28478   0.29339
 Alpha virt. eigenvalues --    0.31999   0.32392   0.32580   0.35892   0.37391
 Alpha virt. eigenvalues --    0.39066   0.40941   0.41840   0.45937   0.47156
 Alpha virt. eigenvalues --    0.48419   0.59101   0.61835   0.63809   0.64664
 Alpha virt. eigenvalues --    0.65920   0.66346   0.66912   0.67931   0.68539
 Alpha virt. eigenvalues --    0.70269   0.72429   0.73069   0.75506   0.77159
 Alpha virt. eigenvalues --    0.78655   0.80571   0.81010   0.84850   0.87229
 Alpha virt. eigenvalues --    0.91167   0.91218   0.94534   0.94804   0.95668
 Alpha virt. eigenvalues --    0.97745   0.99178   1.02528   1.06977   1.07916
 Alpha virt. eigenvalues --    1.09706   1.12632   1.14683   1.15439   1.18183
 Alpha virt. eigenvalues --    1.25541   1.27842   1.28081   1.30951   1.37115
 Alpha virt. eigenvalues --    1.40315   1.43040   1.44923   1.48233   1.53736
 Alpha virt. eigenvalues --    1.55683   1.56894   1.58622   1.63303   1.63726
 Alpha virt. eigenvalues --    1.70934   1.74894   1.77088   1.77561   1.80883
 Alpha virt. eigenvalues --    1.84824   1.87557   1.90159   1.90479   1.93196
 Alpha virt. eigenvalues --    1.98895   2.04568   2.11322   2.15216   2.21849
 Alpha virt. eigenvalues --    2.27702   2.31340   2.32262   2.39314   2.40500
 Alpha virt. eigenvalues --    2.41489   2.45186   2.46729   2.53251   2.54308
 Alpha virt. eigenvalues --    2.58629   2.62304   2.63871   2.64031   2.68755
 Alpha virt. eigenvalues --    2.75761   2.80980   2.82085   2.89391   2.95921
 Alpha virt. eigenvalues --    2.97199   2.97505   2.99397   3.03878   3.04514
 Alpha virt. eigenvalues --    3.05112   3.07491   3.08094   3.12509   3.13638
 Alpha virt. eigenvalues --    3.14951   3.15133   3.23866   3.27155   3.28743
 Alpha virt. eigenvalues --    3.33589   3.35372   3.36287   3.37134   3.39417
 Alpha virt. eigenvalues --    3.41803   3.42794   3.44863   3.45492   3.48554
 Alpha virt. eigenvalues --    3.50184   3.54801   3.58254   3.63113   3.63594
 Alpha virt. eigenvalues --    3.65656   3.72883   3.76838   3.78673   3.81007
 Alpha virt. eigenvalues --    3.87256   3.87882   3.89212   3.93611   3.96262
 Alpha virt. eigenvalues --    4.04343   4.12288   4.14943   4.15146   4.24202
 Alpha virt. eigenvalues --    4.24842   4.28681   4.37694   4.38858   4.47223
 Alpha virt. eigenvalues --    4.54973   4.56065   4.60923   4.64943   4.66614
 Alpha virt. eigenvalues --    4.67928   4.69910   4.70709   4.73213   4.73791
 Alpha virt. eigenvalues --    4.76762   4.77907   4.83057   4.85546   4.86129
 Alpha virt. eigenvalues --    4.86609   4.87700   4.92110   4.94805   4.97223
 Alpha virt. eigenvalues --    4.99836   5.00256   5.02467   5.09784   5.11101
 Alpha virt. eigenvalues --    5.18843   5.25283   5.33107   5.38388   5.44414
 Alpha virt. eigenvalues --    5.46855   5.48887   5.54272   5.56223   5.60521
 Alpha virt. eigenvalues --    5.72412   6.20319   7.19434  10.93296  11.63882
 Alpha virt. eigenvalues --   11.97142  12.23802  12.53022  13.03624
          Condensed to atoms (all electrons):
               1          2          3          4          5          6
     1  C    4.938180   0.625929   0.302463   0.018041  -0.071274   0.024412
     2  C    0.625929   4.938478   0.018515   0.303272   0.361381  -0.025891
     3  H    0.302463   0.018515   0.567141  -0.007118   0.009530  -0.000111
     4  H    0.018041   0.303272  -0.007118   0.567139  -0.044650  -0.005575
     5  C   -0.071274   0.361381   0.009530  -0.044650   5.139798   0.354212
     6  H    0.024412  -0.025891  -0.000111  -0.005575   0.354212   0.571169
     7  H   -0.031698  -0.006806  -0.000190   0.003065   0.370065  -0.031660
     8  C    0.361723  -0.069647  -0.044498   0.009540   0.002389  -0.008909
     9  H   -0.006796  -0.031414   0.003064  -0.000189   0.009863   0.000028
    10  H   -0.024786   0.023839  -0.005561  -0.000112  -0.008781   0.000002
    11  C   -0.102531   0.056864   0.038381  -0.021256  -0.093079   0.028870
    12  H    0.011535   0.002418  -0.000139   0.000014   0.004794  -0.000121
    13  H    0.031659  -0.020036   0.000053   0.000008   0.003735  -0.000098
    14  C    0.056791  -0.101316  -0.021436   0.038061   0.315432  -0.040704
    15  H   -0.020027   0.032047   0.000006   0.000062  -0.028751  -0.005705
    16  H    0.002385   0.011685   0.000014  -0.000139  -0.021641   0.000668
               7          8          9         10         11         12
     1  C   -0.031698   0.361723  -0.006796  -0.024786  -0.102531   0.011535
     2  C   -0.006806  -0.069647  -0.031414   0.023839   0.056864   0.002418
     3  H   -0.000190  -0.044498   0.003064  -0.005561   0.038381  -0.000139
     4  H    0.003065   0.009540  -0.000189  -0.000112  -0.021256   0.000014
     5  C    0.370065   0.002389   0.009863  -0.008781  -0.093079   0.004794
     6  H   -0.031660  -0.008909   0.000028   0.000002   0.028870  -0.000121
     7  H    0.567652   0.009302   0.002009   0.000028  -0.002908   0.000453
     8  C    0.009302   5.140655   0.368943   0.354486   0.315679  -0.021748
     9  H    0.002009   0.368943   0.567750  -0.031671  -0.027093  -0.006062
    10  H    0.000028   0.354486  -0.031671   0.571109  -0.041491   0.000775
    11  C   -0.002908   0.315679  -0.027093  -0.041491   5.308521   0.339368
    12  H    0.000453  -0.021748  -0.006062   0.000775   0.339368   0.579079
    13  H   -0.000117  -0.028753   0.004502  -0.005839   0.361328  -0.032276
    14  C   -0.028399  -0.092893  -0.003934   0.028688   0.161115  -0.009363
    15  H    0.004511   0.003102  -0.000120  -0.000097  -0.020113   0.003984
    16  H   -0.005874   0.005093   0.000429  -0.000121  -0.009567  -0.010808
              13         14         15         16
     1  C    0.031659   0.056791  -0.020027   0.002385
     2  C   -0.020036  -0.101316   0.032047   0.011685
     3  H    0.000053  -0.021436   0.000006   0.000014
     4  H    0.000008   0.038061   0.000062  -0.000139
     5  C    0.003735   0.315432  -0.028751  -0.021641
     6  H   -0.000098  -0.040704  -0.005705   0.000668
     7  H   -0.000117  -0.028399   0.004511  -0.005874
     8  C   -0.028753  -0.092893   0.003102   0.005093
     9  H    0.004502  -0.003934  -0.000120   0.000429
    10  H   -0.005839   0.028688  -0.000097  -0.000121
    11  C    0.361328   0.161115  -0.020113  -0.009567
    12  H   -0.032276  -0.009363   0.003984  -0.010808
    13  H    0.570736  -0.020499  -0.011538   0.003947
    14  C   -0.020499   5.305750   0.360998   0.339016
    15  H   -0.011538   0.360998   0.570851  -0.032270
    16  H    0.003947   0.339016  -0.032270   0.579252
 Mulliken charges:
               1
     1  C   -0.116004
     2  C   -0.119318
     3  H    0.139885
     4  H    0.139837
     5  C   -0.303020
     6  H    0.139415
     7  H    0.150565
     8  C   -0.304464
     9  H    0.150690
    10  H    0.139532
    11  C   -0.292088
    12  H    0.138098
    13  H    0.143188
    14  C   -0.287308
    15  H    0.143060
    16  H    0.137932
 Sum of Mulliken charges =  -0.00000
 Mulliken charges with hydrogens summed into heavy atoms:
               1
     1  C    0.023882
     2  C    0.020519
     5  C   -0.013040
     8  C   -0.014242
    11  C   -0.010802
    14  C   -0.006317
 APT charges:
               1
     1  C   -0.052464
     2  C   -0.052207
     3  H    0.018114
     4  H    0.018265
     5  C    0.081994
     6  H   -0.027395
     7  H   -0.035823
     8  C    0.085201
     9  H   -0.035783
    10  H   -0.027227
    11  C    0.088686
    12  H   -0.040734
    13  H   -0.036398
    14  C    0.092690
    15  H   -0.036311
    16  H   -0.040610
 Sum of APT charges =   0.00000
 APT charges with hydrogens summed into heavy atoms:
               1
     1  C   -0.034350
     2  C   -0.033942
     5  C    0.018777
     8  C    0.022191
    11  C    0.011554
    14  C    0.015769
 Electronic spatial extent (au):  <R**2>=            550.9028
 Charge=              0.0000 electrons
 Dipole moment (field-independent basis, Debye):
    X=             -0.0112    Y=             -0.3413    Z=              0.1180  Tot=              0.3613
 Quadrupole moment (field-independent basis, Debye-Ang):
   XX=            -37.0526   YY=            -38.8767   ZZ=            -39.2038
   XY=             -0.0569   XZ=             -0.0255   YZ=             -0.9893
 Traceless Quadrupole moment (field-independent basis, Debye-Ang):
   XX=              1.3251   YY=             -0.4990   ZZ=             -0.8261
   XY=             -0.0569   XZ=             -0.0255   YZ=             -0.9893
 Octapole moment (field-independent basis, Debye-Ang**2):
  XXX=              0.1894  YYY=              0.1312  ZZZ=              1.9643  XYY=             -0.1043
  XXY=              1.9578  XXZ=             -1.4860  XZZ=             -0.0971  YZZ=             -2.5401
  YYZ=             -2.0244  XYZ=             -0.0203
 Hexadecapole moment (field-independent basis, Debye-Ang**3):
 XXXX=           -329.8200 YYYY=           -340.6920 ZZZZ=            -94.5261 XXXY=             -0.0608
 XXXZ=             -0.1840 YYYX=             -0.3219 YYYZ=            -12.0432 ZZZX=              0.0628
 ZZZY=              2.5975 XXYY=           -110.5936 XXZZ=            -73.1421 YYZZ=            -74.6924
 XXYZ=             -2.5567 YYXZ=             -0.1853 ZZXY=             -0.0365
 N-N= 2.359884635945D+02 E-N=-1.014027463697D+03  KE= 2.322200582829D+02
  Exact polarizability:  76.861  -0.238  69.085  -0.036  -1.701  56.920
 Approx polarizability:  94.657  -0.507  78.106  -0.031  -2.078  73.031
 No NMR shielding tensors so no spin-rotation constants.
 Leave Link  601 at Thu Mar 12 15:08:28 2020, MaxMem= 12884901888 cpu:               3.3 elap:               0.3
 (Enter /project/qslin/software/g16/l701.exe)
 ... and contract with generalized density number  0.
 Compute integral second derivatives.
 Leave Link  701 at Thu Mar 12 15:08:28 2020, MaxMem= 12884901888 cpu:               4.7 elap:               0.4
 (Enter /project/qslin/software/g16/l702.exe)
 L702 exits ... SP integral derivatives will be done elsewhere.
 Leave Link  702 at Thu Mar 12 15:08:28 2020, MaxMem= 12884901888 cpu:               0.3 elap:               0.0
 (Enter /project/qslin/software/g16/l703.exe)
 Integral derivatives from FoFJK, PRISM(SPDF).
 Compute integral second derivatives, UseDBF=F ICtDFT=           0.
 Calling FoFJK, ICntrl=    100127 FMM=F ISym2X=0 I1Cent= 0 IOpClX= 0 NMat=1 NMatS=1 NMatT=0.
 FoFJK:  IHMeth= 1 ICntrl=  100127 DoSepK=F KAlg= 0 I1Cent=           0 FoldK=F
 IRaf=         0 NMat=       1 IRICut=       1 DoRegI=T DoRafI=F ISym2E= 0 IDoP0=0 IntGTp=1.
 FoFCou: FMM=F IPFlag=           0 FMFlag=      100000 FMFlg1=         800
         NFxFlg=           0 DoJE=F BraDBF=F KetDBF=F FulRan=T
         wScrn=  0.000000 ICntrl=    100127 IOpCl=  0 I1Cent=           0 NGrid=           0
         NMat0=    1 NMatS0=      1 NMatT0=    0 NMatD0=    1 NMtDS0=    0 NMtDT0=    0
 Symmetry not used in FoFCou.
 Leave Link  703 at Thu Mar 12 15:09:51 2020, MaxMem= 12884901888 cpu:            1319.4 elap:              82.8
 (Enter /project/qslin/software/g16/l716.exe)
 Dipole        =-4.40139251D-03-1.34283481D-01 4.64204629D-02
 Polarizability= 7.68606662D+01-2.37594405D-01 6.90850687D+01
                -3.60284546D-02-1.70050236D+00 5.69203623D+01
 ***** Axes restored to original set *****
 -------------------------------------------------------------------
 Center     Atomic                   Forces (Hartrees/Bohr)
 Number     Number              X              Y              Z
 -------------------------------------------------------------------
      1        6          -0.000040316    0.000024180    0.000011778
      2        6           0.000037869    0.000000713    0.000002642
      3        1           0.000009977    0.000001904   -0.000007920
      4        1          -0.000021366   -0.000018002    0.000007569
      5        6           0.000007016    0.000128216   -0.000023246
      6        1          -0.000009175    0.000002553    0.000005130
      7        1           0.000002167   -0.000000606    0.000003976
      8        6           0.000096725   -0.000112774    0.000002338
      9        1          -0.000001413   -0.000001165    0.000002004
     10        1          -0.000003980    0.000002206    0.000005441
     11        6          -0.000005673    0.000018466    0.000015985
     12        1          -0.000011190   -0.000001367   -0.000020809
     13        1           0.000002404   -0.000002124   -0.000003358
     14        6          -0.000079002   -0.000052505    0.000007201
     15        1           0.000004246    0.000010313   -0.000002326
     16        1           0.000011713   -0.000000009   -0.000006405
 -------------------------------------------------------------------
 Cartesian Forces:  Max     0.000128216 RMS     0.000033747
 FormGI is forming the generalized inverse of G from B-inverse, IUseBI=4.
 Leave Link  716 at Thu Mar 12 15:09:51 2020, MaxMem= 12884901888 cpu:               0.8 elap:               0.1
 (Enter /project/qslin/software/g16/l103.exe)

 GradGradGradGradGradGradGradGradGradGradGradGradGradGradGradGradGradGrad
 Berny optimization.
 Red2BG is reusing G-inverse.
 Internal  Forces:  Max     0.000076161 RMS     0.000017175
 Search for a local minimum.
 Step number   1 out of a maximum of   99
 All quantities printed in internal units (Hartrees-Bohrs-Radians)
 RMS Force = .17175D-04 SwitMx=.10000D-02 MixMth= 2
 Mixed Optimization -- En-DIIS/RFO-DIIS
 Second derivative matrix not updated -- analytic derivatives used.
 ITU=  0
     Eigenvalues ---    0.00010   0.00351   0.00982   0.01359   0.01767
     Eigenvalues ---    0.03094   0.03109   0.03797   0.04072   0.04153
     Eigenvalues ---    0.04255   0.04901   0.05350   0.06742   0.06781
     Eigenvalues ---    0.07340   0.07621   0.08013   0.09852   0.10103
     Eigenvalues ---    0.10309   0.11300   0.11785   0.18182   0.19561
     Eigenvalues ---    0.20086   0.25080   0.26469   0.27559   0.29352
     Eigenvalues ---    0.30523   0.32540   0.32848   0.33067   0.33438
     Eigenvalues ---    0.33735   0.33894   0.34042   0.34248   0.35763
     Eigenvalues ---    0.35823   0.56716
 RFO step:  Lambda=-2.78250266D-06 EMin= 9.72746043D-05
 Linear search not attempted -- first point.
 Iteration  1 RMS(Cart)=  0.01579717 RMS(Int)=  0.00014740
 Iteration  2 RMS(Cart)=  0.00017553 RMS(Int)=  0.00003739
 Iteration  3 RMS(Cart)=  0.00000001 RMS(Int)=  0.00003739
 ITry= 1 IFail=0 DXMaxC= 6.14D-02 DCOld= 1.00D+10 DXMaxT= 3.00D-01 DXLimC= 3.00D+00 Rises=F
 Variable       Old X    -DE/DX   Delta X   Delta X   Delta X     New X
                                 (Linear)    (Quad)   (Total)
    R1        2.52957  -0.00001   0.00000   0.00006   0.00010   2.52967
    R2        2.05650  -0.00000   0.00000  -0.00002  -0.00002   2.05648
    R3        2.85928   0.00002   0.00000   0.00014   0.00015   2.85943
    R4        2.05653  -0.00003   0.00000  -0.00008  -0.00008   2.05645
    R5        2.85967  -0.00005   0.00000  -0.00019  -0.00017   2.85950
    R6        2.07139  -0.00001   0.00000  -0.00005  -0.00005   2.07133
    R7        2.08293   0.00001   0.00000  -0.00007  -0.00007   2.08287
    R8        2.93356   0.00008   0.00000   0.00160   0.00159   2.93516
    R9        2.08288  -0.00000   0.00000   0.00009   0.00009   2.08297
   R10        2.07136   0.00000   0.00000   0.00005   0.00005   2.07141
   R11        2.93463  -0.00006   0.00000  -0.00153  -0.00154   2.93308
   R12        2.07341  -0.00001   0.00000  -0.00000  -0.00000   2.07341
   R13        2.07274   0.00000   0.00000   0.00006   0.00006   2.07280
   R14        2.94424  -0.00004   0.00000  -0.00012  -0.00015   2.94409
   R15        2.07276  -0.00000   0.00000  -0.00004  -0.00004   2.07271
   R16        2.07340   0.00000   0.00000  -0.00000  -0.00000   2.07340
    A1        2.12248  -0.00002   0.00000   0.00009   0.00010   2.12258
    A2        2.06888  -0.00001   0.00000  -0.00065  -0.00069   2.06820
    A3        2.09181   0.00003   0.00000   0.00058   0.00059   2.09240
    A4        2.12243   0.00001   0.00000   0.00015   0.00017   2.12259
    A5        2.06910  -0.00002   0.00000  -0.00012  -0.00016   2.06894
    A6        2.09166   0.00001   0.00000  -0.00004  -0.00002   2.09164
    A7        1.94591  -0.00000   0.00000   0.00024   0.00027   1.94618
    A8        1.90387   0.00000   0.00000  -0.00226  -0.00224   1.90163
    A9        1.93248   0.00001   0.00000   0.00425   0.00417   1.93666
   A10        1.86015  -0.00000   0.00000  -0.00071  -0.00072   1.85943
   A11        1.91879  -0.00000   0.00000  -0.00040  -0.00036   1.91842
   A12        1.90070  -0.00001   0.00000  -0.00141  -0.00140   1.89930
   A13        1.90272  -0.00001   0.00000   0.00232   0.00235   1.90507
   A14        1.94609  -0.00002   0.00000  -0.00010  -0.00008   1.94601
   A15        1.93476   0.00004   0.00000  -0.00427  -0.00437   1.93039
   A16        1.85978   0.00000   0.00000   0.00066   0.00064   1.86042
   A17        1.90004   0.00000   0.00000   0.00129   0.00130   1.90134
   A18        1.91836  -0.00002   0.00000   0.00039   0.00043   1.91879
   A19        1.90194   0.00000   0.00000   0.00227   0.00233   1.90427
   A20        1.88413   0.00002   0.00000  -0.00189  -0.00184   1.88229
   A21        1.97755  -0.00003   0.00000  -0.00159  -0.00177   1.97578
   A22        1.86206  -0.00001   0.00000   0.00044   0.00041   1.86247
   A23        1.92856   0.00002   0.00000   0.00028   0.00034   1.92890
   A24        1.90555   0.00001   0.00000   0.00056   0.00060   1.90615
   A25        1.97620   0.00001   0.00000   0.00109   0.00092   1.97713
   A26        1.88341  -0.00001   0.00000   0.00175   0.00180   1.88521
   A27        1.90346   0.00000   0.00000  -0.00227  -0.00222   1.90124
   A28        1.90579   0.00000   0.00000  -0.00040  -0.00036   1.90543
   A29        1.92861  -0.00000   0.00000   0.00025   0.00030   1.92891
   A30        1.86241   0.00000   0.00000  -0.00047  -0.00049   1.86191
    D1       -0.00035  -0.00001   0.00000   0.00106   0.00107   0.00071
    D2        3.13971  -0.00001   0.00000  -0.00286  -0.00284   3.13686
    D3       -3.13802  -0.00002   0.00000  -0.00358  -0.00360   3.14157
    D4        0.00204  -0.00002   0.00000  -0.00751  -0.00751  -0.00547
    D5        1.27941   0.00001   0.00000  -0.00333  -0.00332   1.27609
    D6       -2.95524  -0.00001   0.00000  -0.00114  -0.00111  -2.95635
    D7       -0.81184  -0.00002   0.00000  -0.00377  -0.00372  -0.81556
    D8       -1.85832   0.00000   0.00000  -0.00789  -0.00790  -1.86622
    D9        0.19021  -0.00002   0.00000  -0.00570  -0.00569   0.18452
   D10        2.33362  -0.00002   0.00000  -0.00833  -0.00830   2.32531
   D11        2.95583  -0.00000   0.00000   0.00101   0.00098   2.95682
   D12       -1.27775  -0.00000   0.00000  -0.00113  -0.00114  -1.27889
   D13        0.81363  -0.00001   0.00000  -0.00168  -0.00172   0.81191
   D14       -0.18726  -0.00000   0.00000  -0.00285  -0.00286  -0.19012
   D15        1.86233  -0.00001   0.00000  -0.00498  -0.00497   1.85736
   D16       -2.32947  -0.00001   0.00000  -0.00554  -0.00556  -2.33503
   D17       -0.77463  -0.00000   0.00000   0.02471   0.02472  -0.74991
   D18        1.33682  -0.00000   0.00000   0.02611   0.02611   1.36293
   D19       -2.92960  -0.00001   0.00000   0.02531   0.02533  -2.90427
   D20       -2.93252  -0.00001   0.00000   0.02175   0.02176  -2.91077
   D21       -0.82107  -0.00001   0.00000   0.02315   0.02314  -0.79792
   D22        1.19570  -0.00001   0.00000   0.02235   0.02237   1.21806
   D23        1.31865   0.00000   0.00000   0.02364   0.02363   1.34228
   D24       -2.85308   0.00000   0.00000   0.02504   0.02502  -2.82806
   D25       -0.83632  -0.00000   0.00000   0.02424   0.02424  -0.81207
   D26        2.91519   0.00002   0.00000   0.02767   0.02765   2.94284
   D27       -1.35205   0.00001   0.00000   0.02836   0.02836  -1.32368
   D28        0.76046   0.00001   0.00000   0.02673   0.02672   0.78718
   D29        0.82234   0.00000   0.00000   0.02661   0.02661   0.84895
   D30        2.83829  -0.00000   0.00000   0.02730   0.02733   2.86562
   D31       -1.33238  -0.00000   0.00000   0.02567   0.02568  -1.30670
   D32       -1.20861   0.00000   0.00000   0.02486   0.02485  -1.18377
   D33        0.80734   0.00000   0.00000   0.02556   0.02556   0.83290
   D34        2.91985  -0.00000   0.00000   0.02392   0.02392   2.94377
   D35        0.00995  -0.00001   0.00000  -0.03588  -0.03587  -0.02592
   D36       -2.08881  -0.00000   0.00000  -0.03853  -0.03851  -2.12732
   D37        2.15102  -0.00001   0.00000  -0.03786  -0.03787   2.11315
   D38       -2.13009  -0.00001   0.00000  -0.03790  -0.03788  -2.16797
   D39        2.05433   0.00000   0.00000  -0.04055  -0.04052   2.01381
   D40        0.01098   0.00000   0.00000  -0.03989  -0.03988  -0.02890
   D41        2.11033  -0.00001   0.00000  -0.03893  -0.03894   2.07139
   D42        0.01157  -0.00000   0.00000  -0.04158  -0.04158  -0.03001
   D43       -2.03178  -0.00000   0.00000  -0.04091  -0.04094  -2.07272
         Item               Value     Threshold  Converged?
 Maximum Force            0.000076     0.000450     YES
 RMS     Force            0.000017     0.000300     YES
 Maximum Displacement     0.061352     0.001800     NO 
 RMS     Displacement     0.015800     0.001200     NO 
 Predicted change in Energy=-1.427927D-06
 Lowest energy point so far.  Saving SCF results.
 GradGradGradGradGradGradGradGradGradGradGradGradGradGradGradGradGradGrad

 Leave Link  103 at Thu Mar 12 15:09:51 2020, MaxMem= 12884901888 cpu:               0.9 elap:               0.1
 (Enter /project/qslin/software/g16/l202.exe)
                          Input orientation:                          
 ---------------------------------------------------------------------
 Center     Atomic      Atomic             Coordinates (Angstroms)
 Number     Number       Type             X           Y           Z
 ---------------------------------------------------------------------
      1          6           0       -0.631961    1.322169   -0.184932
      2          6           0        0.706042    1.281429   -0.192145
      3          1           0       -1.178511    2.183666   -0.563583
      4          1           0        1.299893    2.108455   -0.576334
      5          6           0        1.394888    0.051224    0.357219
      6          1           0        2.466891    0.055120    0.128668
      7          1           0        1.308360    0.053066    1.456021
      8          6           0       -1.387547    0.132473    0.365810
      9          1           0       -1.288784    0.117971    1.463543
     10          1           0       -2.459746    0.202077    0.148850
     11          6           0       -0.816067   -1.191221   -0.208929
     12          1           0       -1.235148   -2.036480    0.351210
     13          1           0       -1.171300   -1.290232   -1.241956
     14          6           0        0.740888   -1.244957   -0.194763
     15          1           0        1.105310   -1.399699   -1.217647
     16          1           0        1.090814   -2.100095    0.396958
 ---------------------------------------------------------------------
                    Distance matrix (angstroms):
                    1          2          3          4          5
     1  C    0.000000
     2  C    1.338643   0.000000
     3  H    1.088241   2.122154   0.000000
     4  H    2.122145   1.088225   2.479577   0.000000
     5  C    2.453028   1.513180   3.466636   2.261139   0.000000
     6  H    3.362535   2.169641   4.277718   2.464772   1.096103
     7  H    2.840457   2.141988   3.847438   2.890530   1.102205
     8  C    1.513143   2.452453   2.261605   3.466190   2.783634
     9  H    2.144523   2.841526   2.896290   3.850244   2.903533
    10  H    2.169519   3.362066   2.464917   4.277271   3.863208
    11  C    2.520238   2.903635   3.412771   3.937021   2.598560
    12  H    3.454245   3.882264   4.318528   4.946439   3.357921
    13  H    2.869291   3.352605   3.539521   4.254518   3.307897
    14  C    2.911177   2.526627   3.946590   3.421031   1.553217
    15  H    3.390160   2.898192   4.299319   3.571595   2.160842
    16  H    3.875364   3.453954   4.941972   4.324686   2.173065
                    6          7          8          9         10
     6  H    0.000000
     7  H    1.761836   0.000000
     8  C    3.862501   2.909085   0.000000
     9  H    3.986344   2.597966   1.102262   0.000000
    10  H    4.928869   3.991180   1.096142   1.762567   0.000000
    11  C    3.527769   2.972120   1.552121   2.175915   2.184254
    12  H    4.257865   3.472210   2.174350   2.425246   2.559634
    13  H    4.114003   3.902851   2.157722   3.052305   2.412762
    14  C    2.184924   2.175311   2.596496   2.954170   3.529311
    15  H    2.404780   3.049633   3.327044   3.901768   4.140365
    16  H    2.571094   2.409366   3.335806   3.423435   4.238871
                   11         12         13         14         15
    11  C    0.000000
    12  H    1.097200   0.000000
    13  H    1.096876   1.760437   0.000000
    14  C    1.557947   2.197571   2.180625   0.000000
    15  H    2.180061   2.888693   2.279370   1.096832   0.000000
    16  H    2.197577   2.327282   2.908449   1.097198   1.760033
                   16
    16  H    0.000000
 Stoichiometry    C6H10
 Framework group  C1[X(C6H10)]
 Deg. of freedom    42
 Full point group                 C1      NOp   1
 RotChk:  IX=0 Diff= 6.75D-01
 Largest Abelian subgroup         C1      NOp   1
 Largest concise Abelian subgroup C1      NOp   1
                         Standard orientation:                         
 ---------------------------------------------------------------------
 Center     Atomic      Atomic             Coordinates (Angstroms)
 Number     Number       Type             X           Y           Z
 ---------------------------------------------------------------------
      1          6           0       -1.172441    0.878668   -0.185241
      2          6           0        0.031923    1.462988   -0.191956
      3          1           0       -2.056011    1.388567   -0.564154
      4          1           0        0.174731    2.471136   -0.575982
      5          6           0        1.212471    0.692375    0.357749
      6          1           0        2.160541    1.192926    0.129594
      7          1           0        1.134557    0.653763    1.456518
      8          6           0       -1.290441   -0.525818    0.365302
      9          1           0       -1.196608   -0.492994    1.463073
     10          1           0       -2.272604   -0.961289    0.147939
     11          6           0       -0.170123   -1.433558   -0.209134
     12          1           0       -0.149695   -2.376842    0.350908
     13          1           0       -0.438577   -1.685885   -1.242286
     14          6           0        1.234249   -0.759230   -0.194387
     15          1           0        1.629247   -0.727241   -1.217125
     16          1           0        1.940586   -1.354692    0.397522
 ---------------------------------------------------------------------
 Rotational constants (GHZ):           4.6290517           4.5361510           2.6048771
 Leave Link  202 at Thu Mar 12 15:09:52 2020, MaxMem= 12884901888 cpu:               0.2 elap:               0.0
 (Enter /project/qslin/software/g16/l301.exe)
 Standard basis: 6-31+G(2df,p) (6D, 7F)
 Ernie: Thresh=  0.10000D-02 Tol=  0.10000D-05 Strict=F.
 There are   260 symmetry adapted cartesian basis functions of A   symmetry.
 There are   242 symmetry adapted basis functions of A   symmetry.
   242 basis functions,   358 primitive gaussians,   260 cartesian basis functions
    23 alpha electrons       23 beta electrons
       nuclear repulsion energy       236.0011423569 Hartrees.
 IExCor= 3226 DFT=T Ex+Corr=BMK ExCW=0 ScaHFX=  0.420000
 ScaDFX=  1.000000  1.000000  1.000000  1.000000 ScalE2=  1.000000  1.000000
 IRadAn=      5 IRanWt=     -1 IRanGd=            0 ICorTp=0 IEmpDi=  4
 NAtoms=   16 NActive=   16 NUniq=   16 SFac= 1.00D+00 NAtFMM=   60 NAOKFM=F Big=F
 Integral buffers will be    131072 words long.
 Raffenetti 2 integral format.
 Two-electron integral symmetry is turned on.
 Leave Link  301 at Thu Mar 12 15:09:52 2020, MaxMem= 12884901888 cpu:               1.0 elap:               0.1
 (Enter /project/qslin/software/g16/l302.exe)
 NPDir=0 NMtPBC=     1 NCelOv=     1 NCel=       1 NClECP=     1 NCelD=      1
         NCelK=      1 NCelE2=     1 NClLst=     1 CellRange=     0.0.
 One-electron integrals computed using PRISM.
 One-electron integral symmetry used in STVInt
 NBasis=   242 RedAO= T EigKep=  1.98D-05  NBF=   242
 NBsUse=   242 1.00D-06 EigRej= -1.00D+00 NBFU=   242
 Precomputing XC quadrature grid using
 IXCGrd= 4 IRadAn=           5 IRanWt=          -1 IRanGd=           0 AccXCQ= 0.00D+00.
 Generated NRdTot=       0 NPtTot=           0 NUsed=           0 NTot=          32
 NSgBfM=   260   260   260   260   260 MxSgAt=    16 MxSgA2=    16.
 Leave Link  302 at Thu Mar 12 15:09:52 2020, MaxMem= 12884901888 cpu:               3.7 elap:               0.3
 (Enter /project/qslin/software/g16/l303.exe)
 DipDrv:  MaxL=1.
 Leave Link  303 at Thu Mar 12 15:09:52 2020, MaxMem= 12884901888 cpu:               0.6 elap:               0.1
 (Enter /project/qslin/software/g16/l401.exe)
 Initial guess from the checkpoint file:  "DA-P.chk"
 B after Tr=     0.000000    0.000000    0.000000
         Rot=    0.971037    0.000073   -0.000149   -0.238930 Ang=  27.65 deg.
 Guess basis will be translated and rotated to current coordinates.
 JPrj=2 DoOrth=T DoCkMO=T.
 Generating alternative initial guess.
 ExpMin= 4.38D-02 ExpMax= 3.05D+03 ExpMxC= 4.57D+02 IAcc=2 IRadAn=         4 AccDes= 0.00D+00
 Harris functional with IExCor= 1009 and IRadAn=       4 diagonalized for initial guess.
 HarFok:  IExCor= 1009 AccDes= 0.00D+00 IRadAn=         4 IDoV= 1 UseB2=F ITyADJ=14
 ICtDFT=  3500011 ScaDFX=  1.000000  1.000000  1.000000  1.000000
 FoFCou: FMM=F IPFlag=           0 FMFlag=      100000 FMFlg1=           0
         NFxFlg=           0 DoJE=T BraDBF=F KetDBF=T FulRan=T
         wScrn=  0.000000 ICntrl=       500 IOpCl=  0 I1Cent=   200000004 NGrid=           0
         NMat0=    1 NMatS0=      1 NMatT0=    0 NMatD0=    1 NMtDS0=    0 NMtDT0=    0
 Petite list used in FoFCou.
 Harris En= -234.495892699621    
 Leave Link  401 at Thu Mar 12 15:09:53 2020, MaxMem= 12884901888 cpu:               7.9 elap:               0.5
 (Enter /project/qslin/software/g16/l502.exe)
 Integral symmetry usage will be decided dynamically.
 Closed shell SCF:
 Using DIIS extrapolation, IDIIS=  1040.
 NGot= 12884901888 LenX= 12884759986 LenY= 12884691945
 Requested convergence on RMS density matrix=1.00D-08 within 128 cycles.
 Requested convergence on MAX density matrix=1.00D-06.
 Requested convergence on             energy=1.00D-06.
 No special actions if energy rises.
 Fock matrices will be formed incrementally for  20 cycles.

 Cycle   1  Pass 1  IDiag  1:
 FoFJK:  IHMeth= 1 ICntrl=       0 DoSepK=F KAlg= 0 I1Cent=           0 FoldK=F
 IRaf= 990000000 NMat=       1 IRICut=       1 DoRegI=T DoRafI=F ISym2E= 0 IDoP0=0 IntGTp=1.
 FoFCou: FMM=F IPFlag=           0 FMFlag=      100000 FMFlg1=           0
         NFxFlg=           0 DoJE=F BraDBF=F KetDBF=F FulRan=T
         wScrn=  0.000000 ICntrl=         0 IOpCl=  0 I1Cent=           0 NGrid=           0
         NMat0=    1 NMatS0=      1 NMatT0=    0 NMatD0=    1 NMtDS0=    0 NMtDT0=    0
 Symmetry not used in FoFCou.
 E= -234.487288945246    
 DIIS: error= 5.58D-04 at cycle   1 NSaved=   1.
 NSaved= 1 IEnMin= 1 EnMin= -234.487288945246     IErMin= 1 ErrMin= 5.58D-04
 ErrMax= 5.58D-04  0.00D+00 EMaxC= 1.00D-01 BMatC= 2.13D-04 BMatP= 2.13D-04
 IDIUse=3 WtCom= 9.94D-01 WtEn= 5.58D-03
 Coeff-Com:  0.100D+01
 Coeff-En:   0.100D+01
 Coeff:      0.100D+01
 Gap=     0.673 Goal=   None    Shift=    0.000
 RMSDP=1.66D-04 MaxDP=4.01D-03              OVMax= 5.03D-03

 Cycle   2  Pass 1  IDiag  1:
 RMSU=  1.66D-04    CP:  1.00D+00
 E= -234.487640797268     Delta-E=       -0.000351852022 Rises=F Damp=F
 DIIS: error= 9.08D-05 at cycle   2 NSaved=   2.
 NSaved= 2 IEnMin= 2 EnMin= -234.487640797268     IErMin= 2 ErrMin= 9.08D-05
 ErrMax= 9.08D-05  0.00D+00 EMaxC= 1.00D-01 BMatC= 5.09D-06 BMatP= 2.13D-04
 IDIUse=1 WtCom= 1.00D+00 WtEn= 0.00D+00
 Coeff-Com: -0.145D+00 0.115D+01
 Coeff:     -0.145D+00 0.115D+01
 Gap=     0.315 Goal=   None    Shift=    0.000
 RMSDP=2.27D-05 MaxDP=6.34D-04 DE=-3.52D-04 OVMax= 1.24D-03

 Cycle   3  Pass 1  IDiag  1:
 RMSU=  1.86D-05    CP:  1.00D+00  1.08D+00
 E= -234.487653254582     Delta-E=       -0.000012457313 Rises=F Damp=F
 DIIS: error= 1.86D-05 at cycle   3 NSaved=   3.
 NSaved= 3 IEnMin= 3 EnMin= -234.487653254582     IErMin= 3 ErrMin= 1.86D-05
 ErrMax= 1.86D-05  0.00D+00 EMaxC= 1.00D-01 BMatC= 1.79D-07 BMatP= 5.09D-06
 IDIUse=1 WtCom= 1.00D+00 WtEn= 0.00D+00
 Coeff-Com: -0.182D-01 0.862D-01 0.932D+00
 Coeff:     -0.182D-01 0.862D-01 0.932D+00
 Gap=     0.315 Goal=   None    Shift=    0.000
 RMSDP=5.41D-06 MaxDP=1.75D-04 DE=-1.25D-05 OVMax= 3.97D-04

 Cycle   4  Pass 1  IDiag  1:
 RMSU=  4.79D-06    CP:  1.00D+00  1.07D+00  1.13D+00
 E= -234.487653312126     Delta-E=       -0.000000057544 Rises=F Damp=F
 DIIS: error= 2.43D-05 at cycle   4 NSaved=   4.
 NSaved= 4 IEnMin= 4 EnMin= -234.487653312126     IErMin= 3 ErrMin= 1.86D-05
 ErrMax= 2.43D-05  0.00D+00 EMaxC= 1.00D-01 BMatC= 2.12D-07 BMatP= 1.79D-07
 IDIUse=1 WtCom= 1.00D+00 WtEn= 0.00D+00
 Coeff-Com:  0.280D-02-0.570D-01 0.553D+00 0.501D+00
 Coeff:      0.280D-02-0.570D-01 0.553D+00 0.501D+00
 Gap=     0.315 Goal=   None    Shift=    0.000
 RMSDP=2.75D-06 MaxDP=1.07D-04 DE=-5.75D-08 OVMax= 2.52D-04

 Cycle   5  Pass 1  IDiag  1:
 RMSU=  2.10D-06    CP:  1.00D+00  1.07D+00  1.19D+00  7.21D-01
 E= -234.487653531373     Delta-E=       -0.000000219248 Rises=F Damp=F
 DIIS: error= 2.43D-06 at cycle   5 NSaved=   5.
 NSaved= 5 IEnMin= 5 EnMin= -234.487653531373     IErMin= 5 ErrMin= 2.43D-06
 ErrMax= 2.43D-06  0.00D+00 EMaxC= 1.00D-01 BMatC= 2.75D-09 BMatP= 1.79D-07
 IDIUse=1 WtCom= 1.00D+00 WtEn= 0.00D+00
 Coeff-Com:  0.196D-02-0.200D-01 0.582D-01 0.124D+00 0.836D+00
 Coeff:      0.196D-02-0.200D-01 0.582D-01 0.124D+00 0.836D+00
 Gap=     0.315 Goal=   None    Shift=    0.000
 RMSDP=7.60D-07 MaxDP=3.45D-05 DE=-2.19D-07 OVMax= 2.51D-05

 Cycle   6  Pass 1  IDiag  1:
 RMSU=  5.03D-07    CP:  1.00D+00  1.07D+00  1.20D+00  8.08D-01  1.13D+00
 E= -234.487653535052     Delta-E=       -0.000000003679 Rises=F Damp=F
 DIIS: error= 6.11D-07 at cycle   6 NSaved=   6.
 NSaved= 6 IEnMin= 6 EnMin= -234.487653535052     IErMin= 6 ErrMin= 6.11D-07
 ErrMax= 6.11D-07  0.00D+00 EMaxC= 1.00D-01 BMatC= 2.03D-10 BMatP= 2.75D-09
 IDIUse=1 WtCom= 1.00D+00 WtEn= 0.00D+00
 Coeff-Com:  0.239D-03-0.669D-03-0.230D-01-0.539D-02 0.190D+00 0.839D+00
 Coeff:      0.239D-03-0.669D-03-0.230D-01-0.539D-02 0.190D+00 0.839D+00
 Gap=     0.315 Goal=   None    Shift=    0.000
 RMSDP=2.32D-07 MaxDP=8.95D-06 DE=-3.68D-09 OVMax= 6.53D-06

 Cycle   7  Pass 1  IDiag  1:
 RMSU=  1.04D-07    CP:  1.00D+00  1.07D+00  1.20D+00  8.30D-01  1.21D+00
                    CP:  9.40D-01
 E= -234.487653535303     Delta-E=       -0.000000000251 Rises=F Damp=F
 DIIS: error= 3.36D-07 at cycle   7 NSaved=   7.
 NSaved= 7 IEnMin= 7 EnMin= -234.487653535303     IErMin= 7 ErrMin= 3.36D-07
 ErrMax= 3.36D-07  0.00D+00 EMaxC= 1.00D-01 BMatC= 5.05D-11 BMatP= 2.03D-10
 IDIUse=1 WtCom= 1.00D+00 WtEn= 0.00D+00
 Coeff-Com: -0.161D-03 0.248D-02-0.186D-01-0.190D-01-0.258D-01 0.362D+00
 Coeff-Com:  0.699D+00
 Coeff:     -0.161D-03 0.248D-02-0.186D-01-0.190D-01-0.258D-01 0.362D+00
 Coeff:      0.699D+00
 Gap=     0.315 Goal=   None    Shift=    0.000
 RMSDP=7.82D-08 MaxDP=3.18D-06 DE=-2.51D-10 OVMax= 2.33D-06

 Cycle   8  Pass 1  IDiag  1:
 RMSU=  5.42D-08    CP:  1.00D+00  1.07D+00  1.20D+00  8.36D-01  1.23D+00
                    CP:  9.86D-01  1.10D+00
 E= -234.487653535363     Delta-E=       -0.000000000060 Rises=F Damp=F
 DIIS: error= 3.61D-08 at cycle   8 NSaved=   8.
 NSaved= 8 IEnMin= 8 EnMin= -234.487653535363     IErMin= 8 ErrMin= 3.61D-08
 ErrMax= 3.61D-08  0.00D+00 EMaxC= 1.00D-01 BMatC= 8.96D-13 BMatP= 5.05D-11
 IDIUse=1 WtCom= 1.00D+00 WtEn= 0.00D+00
 Coeff-Com: -0.351D-04 0.396D-03-0.114D-02-0.219D-02-0.168D-01-0.191D-02
 Coeff-Com:  0.102D+00 0.919D+00
 Coeff:     -0.351D-04 0.396D-03-0.114D-02-0.219D-02-0.168D-01-0.191D-02
 Coeff:      0.102D+00 0.919D+00
 Gap=     0.315 Goal=   None    Shift=    0.000
 RMSDP=1.46D-08 MaxDP=7.04D-07 DE=-5.99D-11 OVMax= 5.61D-07

 Cycle   9  Pass 1  IDiag  1:
 RMSU=  7.15D-09    CP:  1.00D+00  1.07D+00  1.20D+00  8.37D-01  1.23D+00
                    CP:  9.87D-01  1.19D+00  1.11D+00
 E= -234.487653535362     Delta-E=        0.000000000001 Rises=F Damp=F
 DIIS: error= 1.57D-08 at cycle   9 NSaved=   9.
 NSaved= 9 IEnMin= 8 EnMin= -234.487653535363     IErMin= 9 ErrMin= 1.57D-08
 ErrMax= 1.57D-08  0.00D+00 EMaxC= 1.00D-01 BMatC= 7.87D-14 BMatP= 8.96D-13
 IDIUse=1 WtCom= 1.00D+00 WtEn= 0.00D+00
 Coeff-Com:  0.122D-05-0.517D-04 0.827D-03 0.579D-03-0.259D-02-0.214D-01
 Coeff-Com: -0.144D-01 0.232D+00 0.805D+00
 Coeff:      0.122D-05-0.517D-04 0.827D-03 0.579D-03-0.259D-02-0.214D-01
 Coeff:     -0.144D-01 0.232D+00 0.805D+00
 Gap=     0.315 Goal=   None    Shift=    0.000
 RMSDP=5.24D-09 MaxDP=2.51D-07 DE= 1.25D-12 OVMax= 1.23D-07

 SCF Done:  E(RBMK) =  -234.487653535     A.U. after    9 cycles
            NFock=  9  Conv=0.52D-08     -V/T= 2.0098
[...]
 Gap=     0.392 Goal=   None    Shift=    0.000
 RMSDP=1.36D-08 MaxDP=5.82D-07 DE=-1.66D-10 OVMax= 1.53D-06

 Cycle   8  Pass 1  IDiag  1:
 RMSU=  4.67D-09    CP:  9.36D-01  1.07D+00  1.14D+00  1.13D+00  1.18D+00
                    CP:  1.42D+00  1.34D+00
 E= -233.100103185634     Delta-E=       -0.000000000011 Rises=F Damp=F
 DIIS: error= 4.01D-08 at cycle   8 NSaved=   8.
 NSaved= 8 IEnMin= 8 EnMin= -233.100103185634     IErMin= 8 ErrMin= 4.01D-08
 ErrMax= 4.01D-08  0.00D+00 EMaxC= 1.00D-01 BMatC= 3.44D-13 BMatP= 2.86D-12
 IDIUse=1 WtCom= 1.00D+00 WtEn= 0.00D+00
 Coeff-Com:  0.574D-05-0.119D-03 0.114D-02 0.281D-02 0.167D-02-0.100D+00
 Coeff-Com:  0.231D+00 0.864D+00
 Coeff:      0.574D-05-0.119D-03 0.114D-02 0.281D-02 0.167D-02-0.100D+00
 Coeff:      0.231D+00 0.864D+00
 Gap=     0.392 Goal=   None    Shift=    0.000
 RMSDP=2.65D-09 MaxDP=9.19D-08 DE=-1.07D-11 OVMax= 3.03D-07

 SCF Done:  E(RHF) =  -233.100103186     A.U. after    8 cycles
            NFock=  8  Conv=0.26D-08     -V/T= 2.0017
 KE= 2.327063843705D+02 PE=-1.014001722965D+03 EE= 3.121982573239D+02
 Leave Link  502 at Thu Mar 12 15:27:07 2020, MaxMem= 12884901888 cpu:            2010.2 elap:             126.2
 (Enter /project/qslin/software/g16/l601.exe)
 Copying SCF densities to generalized density rwf, IOpCl= 0 IROHF=0.

 **********************************************************************

            Population analysis using the SCF density.

 **********************************************************************

 Orbital symmetries:
       Occupied  (A) (A) (A) (A) (A) (A) (A) (A) (A) (A) (A) (A)
                 (A) (A) (A) (A) (A) (A) (A) (A) (A) (A) (A)
       Virtual   (A) (A) (A) (A) (A) (A) (A) (A) (A) (A) (A) (A)
                 (A) (A) (A) (A) (A) (A) (A) (A) (A) (A) (A) (A)
                 (A) (A) (A) (A) (A) (A) (A) (A) (A) (A) (A) (A)
                 (A) (A) (A) (A) (A) (A) (A) (A) (A) (A) (A) (A)
                 (A) (A) (A) (A) (A) (A) (A) (A) (A) (A) (A) (A)
                 (A) (A) (A) (A) (A) (A) (A) (A) (A) (A) (A) (A)
                 (A) (A) (A) (A) (A) (A) (A) (A) (A) (A) (A) (A)
                 (A) (A) (A) (A) (A) (A) (A) (A) (A) (A) (A) (A)
                 (A) (A) (A) (A) (A) (A) (A) (A) (A) (A) (A) (A)
                 (A) (A) (A) (A) (A) (A) (A) (A) (A) (A) (A) (A)
                 (A) (A) (A) (A) (A) (A) (A) (A) (A) (A) (A) (A)
                 (A) (A) (A) (A) (A) (A) (A) (A) (A) (A) (A) (A)
                 (A) (A) (A) (A) (A) (A) (A) (A) (A) (A) (A) (A)
                 (A) (A) (A) (A) (A) (A) (A) (A) (A) (A) (A) (A)
                 (A) (A) (A) (A) (A) (A) (A) (A) (A) (A) (A) (A)
                 (A) (A) (A) (A) (A) (A) (A) (A) (A) (A) (A) (A)
                 (A) (A) (A) (A) (A) (A) (A) (A) (A) (A) (A) (A)
                 (A) (A) (A) (A) (A) (A) (A) (A) (A) (A) (A) (A)
                 (A) (A) (A) (A) (A) (A) (A) (A) (A) (A) (A) (A)
                 (A) (A) (A) (A) (A) (A) (A) (A) (A) (A) (A) (A)
                 (A) (A) (A) (A) (A) (A) (A) (A) (A) (A) (A) (A)
                 (A) (A) (A) (A) (A) (A) (A) (A) (A) (A) (A) (A)
                 (A) (A) (A) (A) (A) (A) (A) (A) (A) (A) (A) (A)
                 (A) (A) (A) (A) (A) (A) (A) (A) (A) (A) (A) (A)
                 (A) (A) (A) (A) (A) (A) (A) (A) (A) (A) (A) (A)
                 (A) (A) (A) (A) (A) (A) (A) (A) (A) (A) (A) (A)
                 (A) (A) (A) (A) (A) (A) (A) (A) (A) (A) (A) (A)
                 (A) (A) (A) (A) (A) (A) (A) (A) (A) (A) (A) (A)
                 (A) (A) (A) (A) (A) (A) (A) (A) (A) (A) (A) (A)
                 (A) (A) (A) (A) (A) (A) (A) (A) (A) (A) (A) (A)
                 (A) (A) (A) (A) (A) (A) (A) (A) (A) (A) (A) (A)
                 (A) (A) (A) (A) (A) (A) (A) (A) (A) (A) (A) (A)
                 (A) (A) (A) (A) (A) (A) (A) (A) (A) (A) (A) (A)
                 (A) (A) (A) (A) (A) (A) (A) (A) (A) (A) (A) (A)
                 (A) (A) (A) (A) (A) (A) (A) (A) (A) (A) (A) (A)
                 (A) (A) (A) (A) (A) (A) (A) (A) (A) (A) (A) (A)
                 (A) (A) (A) (A) (A) (A) (A) (A) (A) (A) (A) (A)
                 (A) (A) (A) (A) (A) (A) (A) (A) (A) (A) (A) (A)
                 (A) (A) (A) (A) (A) (A) (A) (A) (A) (A) (A) (A)
                 (A) (A) (A) (A) (A) (A) (A) (A) (A) (A) (A) (A)
                 (A)
 The electronic state is 1-A.
 Alpha  occ. eigenvalues --  -11.22207 -11.22205 -11.21944 -11.21924 -11.21871
 Alpha  occ. eigenvalues --  -11.21777  -1.11255  -0.99784  -0.99275  -0.84494
 Alpha  occ. eigenvalues --   -0.80640  -0.68930  -0.66618  -0.63814  -0.55255
 Alpha  occ. eigenvalues --   -0.55180  -0.54871  -0.52423  -0.52407  -0.45572
 Alpha  occ. eigenvalues --   -0.45121  -0.43348  -0.34025
 Alpha virt. eigenvalues --    0.05132   0.05176   0.05615   0.05857   0.06734
 Alpha virt. eigenvalues --    0.07551   0.08357   0.09471   0.10230   0.10885
 Alpha virt. eigenvalues --    0.11453   0.12022   0.12408   0.13042   0.13477
 Alpha virt. eigenvalues --    0.15014   0.15755   0.15788   0.17161   0.17408
 Alpha virt. eigenvalues --    0.18335   0.19726   0.20216   0.20507   0.21563
 Alpha virt. eigenvalues --    0.23248   0.25526   0.26727   0.29656   0.29706
 Alpha virt. eigenvalues --    0.31366   0.32864   0.33168   0.34620   0.35269
 Alpha virt. eigenvalues --    0.35570   0.36481   0.36982   0.38491   0.38884
 Alpha virt. eigenvalues --    0.40323   0.40567   0.42373   0.43146   0.44189
 Alpha virt. eigenvalues --    0.45182   0.45628   0.47199   0.50821   0.52106
 Alpha virt. eigenvalues --    0.52873   0.53453   0.54280   0.55168   0.56092
 Alpha virt. eigenvalues --    0.56155   0.57039   0.57422   0.59545   0.60731
 Alpha virt. eigenvalues --    0.63328   0.63531   0.66151   0.67319   0.69854
 Alpha virt. eigenvalues --    0.69938   0.71369   0.71962   0.74254   0.75330
 Alpha virt. eigenvalues --    0.77493   0.79184   0.80500   0.81657   0.82416
 Alpha virt. eigenvalues --    0.86257   0.88219   0.90094   0.91093   0.91976
 Alpha virt. eigenvalues --    0.93386   0.94700   0.96744   0.98420   0.98710
 Alpha virt. eigenvalues --    0.99401   1.00226   1.01843   1.04071   1.04756
 Alpha virt. eigenvalues --    1.06486   1.07755   1.08284   1.08373   1.12262
 Alpha virt. eigenvalues --    1.12675   1.13669   1.15386   1.16762   1.18381
 Alpha virt. eigenvalues --    1.21269   1.24447   1.25451   1.27162   1.27396
 Alpha virt. eigenvalues --    1.29715   1.29920   1.32893   1.34038   1.35398
 Alpha virt. eigenvalues --    1.37534   1.38564   1.38997   1.44446   1.47300
 Alpha virt. eigenvalues --    1.49367   1.51186   1.52817   1.53997   1.59297
 Alpha virt. eigenvalues --    1.60469   1.60650   1.62570   1.63338   1.64434
 Alpha virt. eigenvalues --    1.65368   1.69134   1.69364   1.70426   1.72543
 Alpha virt. eigenvalues --    1.74350   1.74826   1.76900   1.77123   1.77795
 Alpha virt. eigenvalues --    1.78347   1.81859   1.82170   1.82959   1.85359
 Alpha virt. eigenvalues --    1.88460   1.88819   1.90895   1.91423   1.92331
 Alpha virt. eigenvalues --    1.93578   1.94593   1.96257   1.98077   1.98940
 Alpha virt. eigenvalues --    1.99648   2.02162   2.03846   2.04566   2.06846
 Alpha virt. eigenvalues --    2.08869   2.09812   2.10840   2.12014   2.12902
 Alpha virt. eigenvalues --    2.15032   2.15478   2.17888   2.18168   2.21462
 Alpha virt. eigenvalues --    2.21993   2.23437   2.24453   2.25972   2.27189
 Alpha virt. eigenvalues --    2.28551   2.28692   2.29834   2.30837   2.34104
 Alpha virt. eigenvalues --    2.34321   2.34705   2.36518   2.39862   2.44222
 Alpha virt. eigenvalues --    2.45547   2.46972   2.49031   2.49633   2.52456
 Alpha virt. eigenvalues --    2.56850   2.57190   2.58628   2.59344   2.60690
 Alpha virt. eigenvalues --    2.62278   2.65074   2.70097   2.73567   2.73825
 Alpha virt. eigenvalues --    2.75955   2.76080   2.78183   2.82000   2.83108
 Alpha virt. eigenvalues --    2.83770   2.87344   2.89741   2.92607   2.93895
 Alpha virt. eigenvalues --    2.97924   2.98691   3.00688   3.02166   3.02777
 Alpha virt. eigenvalues --    3.05924   3.07539   3.13466   3.15087   3.20619
 Alpha virt. eigenvalues --    3.24551   3.27895   3.29146   3.31386   3.33875
 Alpha virt. eigenvalues --    3.36119   3.37765   3.42295   3.44011   3.46323
 Alpha virt. eigenvalues --    3.53499   3.54289   3.59081   3.59494   3.61262
 Alpha virt. eigenvalues --    3.62251   3.70935   3.71994   3.76532   3.80863
 Alpha virt. eigenvalues --    3.84792   3.86034   3.87043   3.90452   3.91192
 Alpha virt. eigenvalues --    3.92998   3.93618   3.96257   3.96467   4.00409
 Alpha virt. eigenvalues --    4.05238   4.05407   4.09048   4.11856   4.11979
 Alpha virt. eigenvalues --    4.15681   4.16422   4.18882   4.22419   4.26678
 Alpha virt. eigenvalues --    4.27127   4.31279   4.34314   4.35429   4.37266
 Alpha virt. eigenvalues --    4.37303   4.39156   4.43845   4.44328   4.45273
 Alpha virt. eigenvalues --    4.48657   4.49229   4.49638   4.49842   4.51442
 Alpha virt. eigenvalues --    4.53280   4.55816   4.57974   4.59307   4.59439
 Alpha virt. eigenvalues --    4.60759   4.61553   4.62990   4.64203   4.69167
 Alpha virt. eigenvalues --    4.70566   4.70855   4.73163   4.74397   4.78214
 Alpha virt. eigenvalues --    4.80253   4.80590   4.82537   4.86819   4.87503
 Alpha virt. eigenvalues --    4.89828   4.93732   4.94846   4.94884   4.97257
 Alpha virt. eigenvalues --    4.97516   4.99289   5.00610   5.05729   5.06606
 Alpha virt. eigenvalues --    5.07431   5.07654   5.10903   5.12984   5.19334
 Alpha virt. eigenvalues --    5.21385   5.22262   5.23045   5.26058   5.29452
 Alpha virt. eigenvalues --    5.30967   5.31562   5.36974   5.37433   5.41230
 Alpha virt. eigenvalues --    5.43151   5.43459   5.47885   5.50711   5.50812
 Alpha virt. eigenvalues --    5.53207   5.53253   5.55566   5.59415   5.65921
 Alpha virt. eigenvalues --    5.68968   5.73481   5.76003   5.79088   5.80529
 Alpha virt. eigenvalues --    5.84409   5.88619   5.91409   5.94309   5.98918
 Alpha virt. eigenvalues --    6.02418   6.02531   6.04510   6.08875   6.09417
 Alpha virt. eigenvalues --    6.10386   6.11773   6.16453   6.17346   6.20743
 Alpha virt. eigenvalues --    6.22207   6.25916   6.26870   6.27804   6.28352
 Alpha virt. eigenvalues --    6.32319   6.35281   6.35467   6.36343   6.37766
 Alpha virt. eigenvalues --    6.39509   6.41933   6.44510   6.45789   6.46340
 Alpha virt. eigenvalues --    6.49024   6.50652   6.52275   6.55492   6.56480
 Alpha virt. eigenvalues --    6.56746   6.60531   6.62272   6.62830   6.66114
 Alpha virt. eigenvalues --    6.66494   6.69890   6.71122   6.75884   6.76764
 Alpha virt. eigenvalues --    6.78745   6.86838   6.87572   6.89198   6.90901
 Alpha virt. eigenvalues --    6.93137   6.93703   6.96361   6.97519   6.98081
 Alpha virt. eigenvalues --    7.01992   7.03918   7.05399   7.08756   7.11210
 Alpha virt. eigenvalues --    7.15611   7.18404   7.20676   7.23293   7.24335
 Alpha virt. eigenvalues --    7.24444   7.25467   7.27051   7.29583   7.31154
 Alpha virt. eigenvalues --    7.32503   7.32763   7.35546   7.39415   7.40917
 Alpha virt. eigenvalues --    7.44840   7.47947   7.50095   7.52086   7.52817
 Alpha virt. eigenvalues --    7.55056   7.55698   7.57458   7.59923   7.61572
 Alpha virt. eigenvalues --    7.63905   7.64833   7.65996   7.69235   7.74055
 Alpha virt. eigenvalues --    7.76930   7.78329   7.80335   7.83454   7.85654
 Alpha virt. eigenvalues --    7.87102   7.89815   7.96904   7.97272   8.00505
 Alpha virt. eigenvalues --    8.00674   8.05648   8.08451   8.09185   8.13626
 Alpha virt. eigenvalues --    8.16290   8.17253   8.19096   8.21754   8.22030
 Alpha virt. eigenvalues --    8.28107   8.30881   8.33737   8.35667   8.38466
 Alpha virt. eigenvalues --    8.39013   8.41810   8.45692   8.50931   8.51081
 Alpha virt. eigenvalues --    8.54493   8.58886   8.69062   8.74239   8.86269
 Alpha virt. eigenvalues --    9.08363   9.23028   9.27075   9.27255   9.33320
 Alpha virt. eigenvalues --    9.39623   9.41420   9.43621   9.64984   9.97545
 Alpha virt. eigenvalues --   10.21123  10.33238  10.37153  10.44163  10.48162
 Alpha virt. eigenvalues --   10.52318  10.56103  10.61676  10.66665  10.74093
 Alpha virt. eigenvalues --   23.80837  23.88913  24.23512  24.57124  24.79831
 Alpha virt. eigenvalues --   24.86073
          Condensed to atoms (all electrons):
               1          2          3          4          5          6
     1  C    4.968225   0.665254   0.417043  -0.022721  -0.066344   0.003315
     2  C    0.665254   4.968075  -0.022735   0.417021   0.354361  -0.021810
     3  H    0.417043  -0.022735   0.512257  -0.002173   0.004048  -0.000385
     4  H   -0.022721   0.417021  -0.002173   0.512349  -0.031930  -0.003213
     5  C   -0.066344   0.354361   0.004048  -0.031930   4.756497   0.402971
     6  H    0.003315  -0.021810  -0.000385  -0.003213   0.402971   0.573912
     7  H   -0.006092  -0.045351  -0.000056   0.001018   0.426978  -0.024053
     8  C    0.354227  -0.066288  -0.031935   0.003968  -0.026160   0.002752
     9  H   -0.045499  -0.005901   0.000995  -0.000053   0.003523  -0.000261
    10  H   -0.021900   0.003319  -0.003221  -0.000384   0.002711   0.000109
    11  C   -0.069364  -0.000298   0.006577  -0.000429  -0.053484   0.006566
    12  H    0.016752  -0.003911  -0.000153  -0.000014   0.006965  -0.000257
    13  H   -0.007827   0.005468  -0.000367   0.000075   0.004255  -0.000389
    14  C    0.000994  -0.069452  -0.000450   0.006535   0.407180  -0.024565
    15  H    0.005009  -0.007126   0.000072  -0.000355  -0.029662  -0.006109
    16  H   -0.004027   0.016824  -0.000015  -0.000154  -0.042493  -0.001635
               7          8          9         10         11         12
     1  C   -0.006092   0.354227  -0.045499  -0.021900  -0.069364   0.016752
     2  C   -0.045351  -0.066288  -0.005901   0.003319  -0.000298  -0.003911
     3  H   -0.000056  -0.031935   0.000995  -0.003221   0.006577  -0.000153
     4  H    0.001018   0.003968  -0.000053  -0.000384  -0.000429  -0.000014
     5  C    0.426978  -0.026160   0.003523   0.002711  -0.053484   0.006965
     6  H   -0.024053   0.002752  -0.000261   0.000109   0.006566  -0.000257
     7  H    0.597067   0.003520   0.003680  -0.000253  -0.003310   0.000306
     8  C    0.003520   4.756413   0.427020   0.403333   0.407357  -0.042294
     9  H    0.003680   0.427020   0.596589  -0.023954  -0.032697  -0.005198
    10  H   -0.000253   0.403333  -0.023954   0.573632  -0.024711  -0.001769
    11  C   -0.003310   0.407357  -0.032697  -0.024711   4.762537   0.419794
    12  H    0.000306  -0.042294  -0.005198  -0.001769   0.419794   0.584255
    13  H   -0.000230  -0.029491   0.005957  -0.005937   0.414657  -0.025440
    14  C   -0.032487  -0.054441  -0.003160   0.006597   0.375635  -0.031848
    15  H    0.005957   0.004575  -0.000227  -0.000388  -0.029975   0.003235
    16  H   -0.005427   0.006987   0.000306  -0.000251  -0.032163  -0.007930
              13         14         15         16
     1  C   -0.007827   0.000994   0.005009  -0.004027
     2  C    0.005468  -0.069452  -0.007126   0.016824
     3  H   -0.000367  -0.000450   0.000072  -0.000015
     4  H    0.000075   0.006535  -0.000355  -0.000154
     5  C    0.004255   0.407180  -0.029662  -0.042493
     6  H   -0.000389  -0.024565  -0.006109  -0.001635
     7  H   -0.000230  -0.032487   0.005957  -0.005427
     8  C   -0.029491  -0.054441   0.004575   0.006987
     9  H    0.005957  -0.003160  -0.000227   0.000306
    10  H   -0.005937   0.006597  -0.000388  -0.000251
    11  C    0.414657   0.375635  -0.029975  -0.032163
    12  H   -0.025440  -0.031848   0.003235  -0.007930
    13  H    0.603106  -0.029740  -0.011616   0.003292
    14  C   -0.029740   4.762141   0.414729   0.420336
    15  H   -0.011616   0.414729   0.603238  -0.025557
    16  H    0.003292   0.420336  -0.025557   0.584385
 Mulliken charges:
               1
     1  C   -0.187045
     2  C   -0.187450
     3  H    0.120500
     4  H    0.120461
     5  C   -0.119417
     6  H    0.093051
     7  H    0.078733
     8  C   -0.119542
     9  H    0.078881
    10  H    0.093068
    11  C   -0.146691
    12  H    0.087508
    13  H    0.074227
    14  C   -0.148003
    15  H    0.074200
    16  H    0.087522
 Sum of Mulliken charges =  -0.00000
 Mulliken charges with hydrogens summed into heavy atoms:
               1
     1  C   -0.066545
     2  C   -0.066989
     5  C    0.052366
     8  C    0.052406
    11  C    0.015043
    14  C    0.013718
 Electronic spatial extent (au):  <R**2>=            551.7303
 Charge=             -0.0000 electrons
 Dipole moment (field-independent basis, Debye):
    X=              0.0763    Y=             -0.2920    Z=              0.1058  Tot=              0.3199
 Quadrupole moment (field-independent basis, Debye-Ang):
   XX=            -37.4600   YY=            -39.1677   ZZ=            -39.6885
   XY=              0.4751   XZ=              0.2510   YZ=             -0.9846
 Traceless Quadrupole moment (field-independent basis, Debye-Ang):
   XX=              1.3121   YY=             -0.3956   ZZ=             -0.9165
   XY=              0.4751   XZ=              0.2510   YZ=             -0.9846
 Octapole moment (field-independent basis, Debye-Ang**2):
  XXX=             -1.5902  YYY=              0.2237  ZZZ=              2.0154  XYY=              1.0553
  XXY=              1.7409  XXZ=             -1.5912  XZZ=              0.6830  YZZ=             -2.5531
  YYZ=             -2.0446  XYZ=              0.1300
 Hexadecapole moment (field-independent basis, Debye-Ang**3):
 XXXX=           -329.8613 YYYY=           -339.8941 ZZZZ=            -94.5928 XXXY=              0.2686
 XXXZ=              2.0727 YYYX=              2.6821 YYYZ=            -11.5678 ZZZX=             -0.6721
 ZZZY=              2.6186 XXYY=           -110.6589 XXZZ=            -73.3306 YYZZ=            -74.7560
 XXYZ=             -2.8732 YYXZ=              1.6155 ZZXY=              0.4027
 N-N= 2.359969780846D+02 E-N=-1.014001723779D+03  KE= 2.327063843705D+02
 No NMR shielding tensors so no spin-rotation constants.
 Leave Link  601 at Thu Mar 12 15:27:08 2020, MaxMem= 12884901888 cpu:               7.0 elap:               0.6
 (Enter /project/qslin/software/g16/l9999.exe)
 1\1\GINC-N0123\SP\RHF\GFHFB4\C6H10\QSLIN\12-Mar-2020\0\\#p Geom=AllChe
 ck Guess=Read HF/GFHFB4\\G4(MP2)-6X calculation\\0,1\C,0,-0.6304147943
 ,1.3221495902,-0.1870343555\C,0,0.7075404125,1.2812635738,-0.189755911
 7\H,0,-1.1755528076,2.1840285549,-0.5668770761\H,0,1.3026585525,2.1084
 426265,-0.571724166\C,0,1.3945015508,0.0500344148,0.3596455456\H,0,2.4
 6717358,0.0542611217,0.1341804518\H,0,1.3044507079,0.0485717266,1.4581
 761351\C,0,-1.3884782973,0.1338099189,0.3628971021\H,0,-1.2942422591,0
 .1228589895,1.4610494548\H,0,-2.4597736662,0.2032511466,0.1415653439\C
 ,0,-0.8158963143,-1.1931342575,-0.204286134\H,0,-1.2291775417,-2.03429
 49819,0.3662428644\H,0,-1.1769439397,-1.30305583,-1.2341750695\C,0,0.7
 412507939,-1.2431069395,-0.1992497775\H,0,1.1005838213,-1.3873842019,-
 1.2254688116\H,0,1.0963412014,-2.102730453,0.3828064041\\Version=ES64L
 -G16RevA.03\State=1-A\HF=-233.1001032\RMSD=2.647e-09\Dipole=-0.0034949
 ,-0.1187107,0.0416084\Quadrupole=1.0657445,-0.3841857,-0.6815588,-0.04
 54661,-0.027176,-0.7548928\PG=C01 [X(C6H10)]\\@


 Democracy is the recurrent suspicion that more than half of the people
 are right more than half of the time.
 -- E. B. White
 Job cpu time:       0 days  0 hours 33 minutes 59.4 seconds.
 Elapsed time:       0 days  0 hours  2 minutes  8.3 seconds.
 File lengths (MBytes):  RWF=    132 Int=      0 D2E=      0 Chk=     20 Scr=      1
 Normal termination of Gaussian 16 at Thu Mar 12 15:27:09 2020.
DA-P.log                                 
   Temperature (K)   373.15
    Pressure (atm)     1.00
   NImag     0
   E_ele    -234.37295465
   H(0K)    -234.23005988
    H(T)    -234.21972529
    U(T)    -234.22090698
    G(T)    -234.26994863

