 Entering Gaussian System, Link 0=g16
 Input=DA-TS.gjf
 Output=DA-TS.log
 Initial command:
 /project/qslin/software/g16/l1.exe "/workfs/qslin/tmp/Gau-8038.inp" -scrdir="/workfs/qslin/tmp/"
 Default is to use a total of  16 processors:
                               16 via shared-memory
                                1 via Linda
 Entering Link 1 = /project/qslin/software/g16/l1.exe PID=      8039.
  
 Copyright (c) 1988,1990,1992,1993,1995,1998,2003,2009,2016,
            Gaussian, Inc.  All Rights Reserved.
  
 This is part of the Gaussian(R) 16 program.  It is based on
 the Gaussian(R) 09 system (copyright 2009, Gaussian, Inc.),
 the Gaussian(R) 03 system (copyright 2003, Gaussian, Inc.),
 the Gaussian(R) 98 system (copyright 1998, Gaussian, Inc.),
 the Gaussian(R) 94 system (copyright 1995, Gaussian, Inc.),
 the Gaussian 92(TM) system (copyright 1992, Gaussian, Inc.),
 the Gaussian 90(TM) system (copyright 1990, Gaussian, Inc.),
 the Gaussian 88(TM) system (copyright 1988, Gaussian, Inc.),
 the Gaussian 86(TM) system (copyright 1986, Carnegie Mellon
 University), and the Gaussian 82(TM) system (copyright 1983,
 Carnegie Mellon University). Gaussian is a federally registered
 trademark of Gaussian, Inc.
  
 This software contains proprietary and confidential information,
 including trade secrets, belonging to Gaussian, Inc.
  
 This software is provided under written license and may be
 used, copied, transmitted, or stored only in accord with that
 written license.
  
 The following legend is applicable only to US Government
 contracts under FAR:
  
                    RESTRICTED RIGHTS LEGEND
  
 Use, reproduction and disclosure by the US Government is
 subject to restrictions as set forth in subparagraphs (a)
 and (c) of the Commercial Computer Software - Restricted
 Rights clause in FAR 52.227-19.
  
 Gaussian, Inc.
 340 Quinnipiac St., Bldg. 40, Wallingford CT 06492
  
  
 ---------------------------------------------------------------
 Warning -- This program may not be used in any manner that
 competes with the business of Gaussian, Inc. or will provide
 assistance to any competitor of Gaussian, Inc.  The licensee
 of this program is prohibited from giving any competitor of
 Gaussian, Inc. access to this program.  By using this program,
 the user acknowledges that Gaussian, Inc. is engaged in the
 business of creating and licensing software in the field of
 computational chemistry and represents and warrants to the
 licensee that it is not a competitor of Gaussian, Inc. and that
 it will not use this program in any manner prohibited above.
 ---------------------------------------------------------------
  

 Cite this work as:
 Gaussian 16, Revision A.03,
 M. J. Frisch, G. W. Trucks, H. B. Schlegel, G. E. Scuseria, 
 M. A. Robb, J. R. Cheeseman, G. Scalmani, V. Barone, 
 G. A. Petersson, H. Nakatsuji, X. Li, M. Caricato, A. V. Marenich, 
 J. Bloino, B. G. Janesko, R. Gomperts, B. Mennucci, H. P. Hratchian, 
 J. V. Ortiz, A. F. Izmaylov, J. L. Sonnenberg, D. Williams-Young, 
 F. Ding, F. Lipparini, F. Egidi, J. Goings, B. Peng, A. Petrone, 
 T. Henderson, D. Ranasinghe, V. G. Zakrzewski, J. Gao, N. Rega, 
 G. Zheng, W. Liang, M. Hada, M. Ehara, K. Toyota, R. Fukuda, 
 J. Hasegawa, M. Ishida, T. Nakajima, Y. Honda, O. Kitao, H. Nakai, 
 T. Vreven, K. Throssell, J. A. Montgomery, Jr., J. E. Peralta, 
 F. Ogliaro, M. J. Bearpark, J. J. Heyd, E. N. Brothers, K. N. Kudin, 
 V. N. Staroverov, T. A. Keith, R. Kobayashi, J. Normand, 
 K. Raghavachari, A. P. Rendell, J. C. Burant, S. S. Iyengar, 
 J. Tomasi, M. Cossi, J. M. Millam, M. Klene, C. Adamo, R. Cammi, 
 J. W. Ochterski, R. L. Martin, K. Morokuma, O. Farkas, 
 J. B. Foresman, and D. J. Fox, Gaussian, Inc., Wallingford CT, 2016.
 
 ******************************************
 Gaussian 16:  ES64L-G16RevA.03 25-Dec-2016
                12-Mar-2020 
 ******************************************
 %nproc=16
 Will use up to   16 processors via shared memory.
 %mem=96GB
 %chk=DA-TS.chk
 --------------------------------------------
 #p BMK/6-31+G(2df,p) Opt=(ts,noeigen,calcfc)
 --------------------------------------------
 1/5=1,10=4,11=1,18=20,26=3,38=1/1,3;
 2/9=110,12=2,17=6,18=5,40=1/2;
 3/5=1,6=6,7=114,11=2,25=1,30=1,71=2,74=-34,140=1/1,2,3;
 4//1;
 5/5=2,38=5/2;
 8/6=4,10=90,11=11/1;
 11/6=1,8=1,9=11,15=111,16=1/1,2,10;
 10/6=1,13=1/2;
 6/7=2,8=2,9=2,10=2,28=1/1;
 7/10=1,18=20,25=1/1,2,3,16;
 1/5=1,10=4,11=1,18=20,26=3/3(2);
 2/9=110/2;
 99//99;
 2/9=110/2;
 3/5=1,6=6,7=114,11=2,25=1,30=1,71=1,74=-34/1,2,3;
 4/5=5,16=3,69=1/1;
 5/5=2,38=5/2;
 7//1,2,3,16;
 1/5=1,11=1,18=20,26=3/3(-5);
 2/9=110/2;
 6/7=2,8=2,9=2,10=2,19=2,28=1/1;
 99/9=1/99;
 Leave Link    1 at Thu Mar 12 11:38:02 2020, MaxMem= 12884901888 cpu:               2.4 elap:               0.2
 (Enter /project/qslin/software/g16/l101.exe)
 ----------------------
 G4(MP2)-6X calculation
 ----------------------
 Symbolic Z-matrix:
 Charge =  0 Multiplicity = 1
 C                     1.30894   0.70111  -0.29412 
 C                     1.30857  -0.70177  -0.29407 
 H                     1.84901   1.21104  -1.08665 
 H                     1.84825  -1.21206  -1.08664 
 C                     0.45311  -1.42609   0.49482 
 H                     0.39259  -2.50342   0.38761 
 H                     0.11587  -1.04007   1.4476 
 C                     0.45394   1.42591   0.49481 
 H                     0.11644   1.04004   1.44755 
 H                     0.39407   2.50329   0.38766 
 C                    -1.57113   0.68699  -0.22891 
 H                    -2.05326   1.23076   0.57508 
 H                    -1.44959   1.23307  -1.15472 
 C                    -1.57154  -0.68626  -0.22885 
 H                    -1.45052  -1.23237  -1.15472 
 H                    -2.05416  -1.22961   0.57514 
 
 Add virtual bond connecting atoms C11        and C8         Dist= 4.30D+00.
 Add virtual bond connecting atoms C11        and H9         Dist= 4.54D+00.
 Add virtual bond connecting atoms H12        and H9         Dist= 4.43D+00.
 Add virtual bond connecting atoms C14        and C5         Dist= 4.30D+00.
 Add virtual bond connecting atoms C14        and H7         Dist= 4.54D+00.
 Add atom      9 valence  3 ND=      2 dihedral       8      9     11     12
 ITRead=  0  0  0  0  0  0  0  0  0  0  0  0  0  0  0  0
 MicOpt= -1 -1 -1 -1 -1 -1 -1 -1 -1 -1 -1 -1 -1 -1 -1 -1
 NAtoms=     16 NQM=       16 NQMF=       0 NMMI=      0 NMMIF=      0
                NMic=       0 NMicF=      0.
                    Isotopes and Nuclear Properties:
 (Nuclear quadrupole moments (NQMom) in fm**2, nuclear magnetic moments (NMagM)
  in nuclear magnetons)

  Atom         1           2           3           4           5           6           7           8           9          10
 IAtWgt=          12          12           1           1          12           1           1          12           1           1
 AtmWgt=  12.0000000  12.0000000   1.0078250   1.0078250  12.0000000   1.0078250   1.0078250  12.0000000   1.0078250   1.0078250
 NucSpn=           0           0           1           1           0           1           1           0           1           1
 AtZEff=  -0.0000000  -0.0000000  -0.0000000  -0.0000000  -0.0000000  -0.0000000  -0.0000000  -0.0000000  -0.0000000  -0.0000000
 NQMom=    0.0000000   0.0000000   0.0000000   0.0000000   0.0000000   0.0000000   0.0000000   0.0000000   0.0000000   0.0000000
 NMagM=    0.0000000   0.0000000   2.7928460   2.7928460   0.0000000   2.7928460   2.7928460   0.0000000   2.7928460   2.7928460
 AtZNuc=   6.0000000   6.0000000   1.0000000   1.0000000   6.0000000   1.0000000   1.0000000   6.0000000   1.0000000   1.0000000

  Atom        11          12          13          14          15          16
 IAtWgt=          12           1           1          12           1           1
 AtmWgt=  12.0000000   1.0078250   1.0078250  12.0000000   1.0078250   1.0078250
 NucSpn=           0           1           1           0           1           1
 AtZEff=  -0.0000000  -0.0000000  -0.0000000  -0.0000000  -0.0000000  -0.0000000
 NQMom=    0.0000000   0.0000000   0.0000000   0.0000000   0.0000000   0.0000000
 NMagM=    0.0000000   2.7928460   2.7928460   0.0000000   2.7928460   2.7928460
 AtZNuc=   6.0000000   1.0000000   1.0000000   6.0000000   1.0000000   1.0000000
 Leave Link  101 at Thu Mar 12 11:38:03 2020, MaxMem= 12884901888 cpu:               7.7 elap:               0.6
 (Enter /project/qslin/software/g16/l103.exe)

 GradGradGradGradGradGradGradGradGradGradGradGradGradGradGradGradGradGrad
 Berny optimization.
 Initialization pass.
                           ----------------------------
                           !    Initial Parameters    !
                           ! (Angstroms and Degrees)  !
 --------------------------                            --------------------------
 ! Name  Definition              Value          Derivative Info.                !
 --------------------------------------------------------------------------------
 ! R1    R(1,2)                  1.4029         calculate D2E/DX2 analytically  !
 ! R2    R(1,3)                  1.0862         calculate D2E/DX2 analytically  !
 ! R3    R(1,8)                  1.3707         calculate D2E/DX2 analytically  !
 ! R4    R(2,4)                  1.0862         calculate D2E/DX2 analytically  !
 ! R5    R(2,5)                  1.3707         calculate D2E/DX2 analytically  !
 ! R6    R(5,6)                  1.0843         calculate D2E/DX2 analytically  !
 ! R7    R(5,7)                  1.0819         calculate D2E/DX2 analytically  !
 ! R8    R(5,14)                 2.2738         calculate D2E/DX2 analytically  !
 ! R9    R(7,14)                 2.4048         calculate D2E/DX2 analytically  !
 ! R10   R(8,9)                  1.0819         calculate D2E/DX2 analytically  !
 ! R11   R(8,10)                 1.0843         calculate D2E/DX2 analytically  !
 ! R12   R(8,11)                 2.2739         calculate D2E/DX2 analytically  !
 ! R13   R(9,11)                 2.4048         calculate D2E/DX2 analytically  !
 ! R14   R(9,12)                 2.3463         calculate D2E/DX2 analytically  !
 ! R15   R(11,12)                1.0838         calculate D2E/DX2 analytically  !
 ! R16   R(11,13)                1.0817         calculate D2E/DX2 analytically  !
 ! R17   R(11,14)                1.3732         calculate D2E/DX2 analytically  !
 ! R18   R(14,15)                1.0817         calculate D2E/DX2 analytically  !
 ! R19   R(14,16)                1.0838         calculate D2E/DX2 analytically  !
 ! A1    A(2,1,3)              118.01           calculate D2E/DX2 analytically  !
 ! A2    A(2,1,8)              121.9111         calculate D2E/DX2 analytically  !
 ! A3    A(3,1,8)              118.8071         calculate D2E/DX2 analytically  !
 ! A4    A(1,2,4)              118.0111         calculate D2E/DX2 analytically  !
 ! A5    A(1,2,5)              121.9121         calculate D2E/DX2 analytically  !
 ! A6    A(4,2,5)              118.8027         calculate D2E/DX2 analytically  !
 ! A7    A(2,5,6)              120.195          calculate D2E/DX2 analytically  !
 ! A8    A(2,5,7)              120.8537         calculate D2E/DX2 analytically  !
 ! A9    A(2,5,14)             101.5727         calculate D2E/DX2 analytically  !
 ! A10   A(6,5,7)              115.0971         calculate D2E/DX2 analytically  !
 ! A11   A(6,5,14)             104.0108         calculate D2E/DX2 analytically  !
 ! A12   A(1,8,9)              120.8537         calculate D2E/DX2 analytically  !
 ! A13   A(1,8,10)             120.196          calculate D2E/DX2 analytically  !
 ! A14   A(1,8,11)             101.5661         calculate D2E/DX2 analytically  !
 ! A15   A(9,8,10)             115.097          calculate D2E/DX2 analytically  !
 ! A16   A(10,8,11)            104.0195         calculate D2E/DX2 analytically  !
 ! A17   A(8,9,12)              86.1022         calculate D2E/DX2 analytically  !
 ! A18   A(8,11,12)             89.83           calculate D2E/DX2 analytically  !
 ! A19   A(8,11,13)             90.4747         calculate D2E/DX2 analytically  !
 ! A20   A(8,11,14)            108.9782         calculate D2E/DX2 analytically  !
 ! A21   A(9,11,13)            116.3397         calculate D2E/DX2 analytically  !
 ! A22   A(9,11,14)             98.4527         calculate D2E/DX2 analytically  !
 ! A23   A(12,11,13)           115.5705         calculate D2E/DX2 analytically  !
 ! A24   A(12,11,14)           120.1046         calculate D2E/DX2 analytically  !
 ! A25   A(13,11,14)           120.3248         calculate D2E/DX2 analytically  !
 ! A26   A(5,14,11)            108.9727         calculate D2E/DX2 analytically  !
 ! A27   A(5,14,15)             90.4886         calculate D2E/DX2 analytically  !
 ! A28   A(5,14,16)             89.8454         calculate D2E/DX2 analytically  !
 ! A29   A(7,14,11)             98.4502         calculate D2E/DX2 analytically  !
 ! A30   A(7,14,15)            116.3536         calculate D2E/DX2 analytically  !
 ! A31   A(7,14,16)             73.8326         calculate D2E/DX2 analytically  !
 ! A32   A(11,14,15)           120.3167         calculate D2E/DX2 analytically  !
 ! A33   A(11,14,16)           120.1002         calculate D2E/DX2 analytically  !
 ! A34   A(15,14,16)           115.5743         calculate D2E/DX2 analytically  !
 ! D1    D(3,1,2,4)             -0.0076         calculate D2E/DX2 analytically  !
 ! D2    D(3,1,2,5)           -166.9538         calculate D2E/DX2 analytically  !
 ! D3    D(8,1,2,4)            166.9512         calculate D2E/DX2 analytically  !
 ! D4    D(8,1,2,5)              0.005          calculate D2E/DX2 analytically  !
 ! D5    D(2,1,8,9)             30.5065         calculate D2E/DX2 analytically  !
 ! D6    D(2,1,8,10)          -172.6735         calculate D2E/DX2 analytically  !
 ! D7    D(2,1,8,11)           -58.7708         calculate D2E/DX2 analytically  !
 ! D8    D(3,1,8,9)           -162.635          calculate D2E/DX2 analytically  !
 ! D9    D(3,1,8,10)            -5.815          calculate D2E/DX2 analytically  !
 ! D10   D(3,1,8,11)           108.0878         calculate D2E/DX2 analytically  !
 ! D11   D(1,2,5,6)            172.6646         calculate D2E/DX2 analytically  !
 ! D12   D(1,2,5,7)            -30.5178         calculate D2E/DX2 analytically  !
 ! D13   D(1,2,5,14)            58.7685         calculate D2E/DX2 analytically  !
 ! D14   D(4,2,5,6)              5.818          calculate D2E/DX2 analytically  !
 ! D15   D(4,2,5,7)            162.6356         calculate D2E/DX2 analytically  !
 ! D16   D(4,2,5,14)          -108.0781         calculate D2E/DX2 analytically  !
 ! D17   D(2,5,14,11)          -50.1328         calculate D2E/DX2 analytically  !
 ! D18   D(2,5,14,15)           72.3284         calculate D2E/DX2 analytically  !
 ! D19   D(2,5,14,16)         -172.0976         calculate D2E/DX2 analytically  !
 ! D20   D(6,5,14,11)         -175.5988         calculate D2E/DX2 analytically  !
 ! D21   D(6,5,14,15)          -53.1376         calculate D2E/DX2 analytically  !
 ! D22   D(6,5,14,16)           62.4364         calculate D2E/DX2 analytically  !
 ! D23   D(1,8,9,12)          -120.9626         calculate D2E/DX2 analytically  !
 ! D24   D(10,8,9,12)           81.1036         calculate D2E/DX2 analytically  !
 ! D25   D(1,8,11,12)          172.1034         calculate D2E/DX2 analytically  !
 ! D26   D(1,8,11,13)          -72.3266         calculate D2E/DX2 analytically  !
 ! D27   D(1,8,11,14)           50.1389         calculate D2E/DX2 analytically  !
 ! D28   D(10,8,11,12)         -62.4288         calculate D2E/DX2 analytically  !
 ! D29   D(10,8,11,13)          53.1412         calculate D2E/DX2 analytically  !
 ! D30   D(10,8,11,14)         175.6067         calculate D2E/DX2 analytically  !
 ! D31   D(8,9,11,12)         -125.0097         calculate D2E/DX2 analytically  !
 ! D32   D(8,11,14,5)           -0.0029         calculate D2E/DX2 analytically  !
 ! D33   D(8,11,14,7)           25.1427         calculate D2E/DX2 analytically  !
 ! D34   D(8,11,14,15)        -102.2119         calculate D2E/DX2 analytically  !
 ! D35   D(8,11,14,16)         101.2998         calculate D2E/DX2 analytically  !
 ! D36   D(9,11,14,5)          -25.1472         calculate D2E/DX2 analytically  !
 ! D37   D(9,11,14,7)           -0.0016         calculate D2E/DX2 analytically  !
 ! D38   D(9,11,14,15)        -127.3562         calculate D2E/DX2 analytically  !
 ! D39   D(9,11,14,16)          76.1555         calculate D2E/DX2 analytically  !
 ! D40   D(12,11,14,5)        -101.2922         calculate D2E/DX2 analytically  !
 ! D41   D(12,11,14,7)         -76.1466         calculate D2E/DX2 analytically  !
 ! D42   D(12,11,14,15)        156.4989         calculate D2E/DX2 analytically  !
 ! D43   D(12,11,14,16)          0.0106         calculate D2E/DX2 analytically  !
 ! D44   D(13,11,14,5)         102.1962         calculate D2E/DX2 analytically  !
 ! D45   D(13,11,14,7)         127.3418         calculate D2E/DX2 analytically  !
 ! D46   D(13,11,14,15)         -0.0127         calculate D2E/DX2 analytically  !
 ! D47   D(13,11,14,16)       -156.501          calculate D2E/DX2 analytically  !
 --------------------------------------------------------------------------------
 Trust Radius=3.00D-01 FncErr=1.00D-07 GrdErr=1.00D-06 EigMax=2.50D+02 EigMin=1.00D-04
 Number of steps in this run=    100 maximum allowed number of steps=    100.
 Search for a saddle point of order  1.
 GradGradGradGradGradGradGradGradGradGradGradGradGradGradGradGradGradGrad

 Leave Link  103 at Thu Mar 12 11:38:04 2020, MaxMem= 12884901888 cpu:               1.7 elap:               0.3
 (Enter /project/qslin/software/g16/l202.exe)
                          Input orientation:                          
 ---------------------------------------------------------------------
 Center     Atomic      Atomic             Coordinates (Angstroms)
 Number     Number       Type             X           Y           Z
 ---------------------------------------------------------------------
      1          6           0        1.308941    0.701109   -0.294118
      2          6           0        1.308565   -0.701769   -0.294074
      3          1           0        1.849012    1.211043   -1.086648
      4          1           0        1.848253   -1.212062   -1.086636
      5          6           0        0.453107   -1.426085    0.494817
      6          1           0        0.392590   -2.503421    0.387612
      7          1           0        0.115874   -1.040071    1.447595
      8          6           0        0.453936    1.425910    0.494806
      9          1           0        0.116440    1.040044    1.447550
     10          1           0        0.394067    2.503289    0.387663
     11          6           0       -1.571130    0.686986   -0.228905
     12          1           0       -2.053261    1.230756    0.575084
     13          1           0       -1.449590    1.233070   -1.154719
     14          6           0       -1.571537   -0.686262   -0.228846
     15          1           0       -1.450516   -1.232368   -1.154720
     16          1           0       -2.054160   -1.229605    0.575137
 ---------------------------------------------------------------------
                    Distance matrix (angstroms):
                    1          2          3          4          5
     1  C    0.000000
     2  C    1.402878   0.000000
     3  H    1.086192   2.139885   0.000000
     4  H    2.139898   1.086194   2.423105   0.000000
     5  C    2.424835   1.370690   3.376985   2.119724   0.000000
     6  H    3.401980   2.132992   4.253452   2.441305   1.084347
     7  H    2.736545   2.137843   3.807055   3.074580   1.081905
     8  C    1.370683   2.424818   2.119765   3.376977   2.851995
     9  H    2.137836   2.736481   3.074607   3.807001   2.665115
    10  H    2.132996   3.401980   2.441384   4.253475   3.931278
    11  C    2.880844   3.197738   3.564790   4.004281   3.014362
    12  H    3.512896   3.973910   4.241400   4.893923   3.653372
    13  H    2.938215   3.477317   3.299378   4.105980   3.662285
    14  C    3.197845   2.880882   4.004466   3.564721   2.273809
    15  H    3.477581   2.938499   4.106309   3.299534   2.526317
    16  H    3.974130   3.513127   4.894185   4.241536   2.516236
                    6          7          8          9         10
     6  H    0.000000
     7  H    1.827985   0.000000
     8  C    3.931272   2.665174   0.000000
     9  H    3.708891   2.080115   1.081904   0.000000
    10  H    5.006710   3.708942   1.084347   1.827983   0.000000
    11  C    3.796707   2.939279   2.273908   2.404796   2.746109
    12  H    4.467819   3.259306   2.516062   2.346310   2.764757
    13  H    4.442272   3.793400   2.526169   3.043273   2.718726
    14  C    2.745885   2.404785   3.014545   2.939337   3.796962
    15  H    2.718714   3.043452   3.662556   3.793549   4.442585
    16  H    2.764843   2.346519   3.653595   3.259435   4.468049
                   11         12         13         14         15
    11  C    0.000000
    12  H    1.083759   0.000000
    13  H    1.081717   1.832114   0.000000
    14  C    1.373248   2.133851   2.134466   0.000000
    15  H    2.134385   3.069610   2.465438   1.081721   0.000000
    16  H    2.133805   2.460361   3.069638   1.083760   1.832157
                   16
    16  H    0.000000
 Stoichiometry    C6H10
 Framework group  C1[X(C6H10)]
 Deg. of freedom    42
 Full point group                 C1      NOp   1
 Largest Abelian subgroup         C1      NOp   1
 Largest concise Abelian subgroup C1      NOp   1
                         Standard orientation:                         
 ---------------------------------------------------------------------
 Center     Atomic      Atomic             Coordinates (Angstroms)
 Number     Number       Type             X           Y           Z
 ---------------------------------------------------------------------
      1          6           0       -1.308941   -0.701109   -0.294118
      2          6           0       -1.308565    0.701769   -0.294074
      3          1           0       -1.849012   -1.211043   -1.086648
      4          1           0       -1.848253    1.212062   -1.086636
      5          6           0       -0.453107    1.426085    0.494817
      6          1           0       -0.392590    2.503421    0.387612
      7          1           0       -0.115874    1.040071    1.447595
      8          6           0       -0.453936   -1.425910    0.494806
      9          1           0       -0.116440   -1.040044    1.447550
     10          1           0       -0.394067   -2.503289    0.387663
     11          6           0        1.571130   -0.686986   -0.228905
     12          1           0        2.053261   -1.230756    0.575084
     13          1           0        1.449590   -1.233070   -1.154719
     14          6           0        1.571537    0.686262   -0.228846
     15          1           0        1.450516    1.232368   -1.154720
     16          1           0        2.054160    1.229605    0.575137
 ---------------------------------------------------------------------
 Rotational constants (GHZ):           4.3859895           3.4931925           2.2860508
 Leave Link  202 at Thu Mar 12 11:38:04 2020, MaxMem= 12884901888 cpu:               2.0 elap:               0.2
 (Enter /project/qslin/software/g16/l301.exe)
 Standard basis: 6-31+G(2df,p) (6D, 7F)
 Ernie: Thresh=  0.10000D-02 Tol=  0.10000D-05 Strict=F.
 There are   260 symmetry adapted cartesian basis functions of A   symmetry.
 There are   242 symmetry adapted basis functions of A   symmetry.
   242 basis functions,   358 primitive gaussians,   260 cartesian basis functions
    23 alpha electrons       23 beta electrons
       nuclear repulsion energy       225.2543095746 Hartrees.
 IExCor= 3226 DFT=T Ex+Corr=BMK ExCW=0 ScaHFX=  0.420000
 ScaDFX=  1.000000  1.000000  1.000000  1.000000 ScalE2=  1.000000  1.000000
 IRadAn=      5 IRanWt=     -1 IRanGd=            0 ICorTp=0 IEmpDi=  4
 NAtoms=   16 NActive=   16 NUniq=   16 SFac= 1.00D+00 NAtFMM=   60 NAOKFM=F Big=F
 Integral buffers will be    131072 words long.
 Raffenetti 2 integral format.
 Two-electron integral symmetry is turned on.
 Leave Link  301 at Thu Mar 12 11:38:05 2020, MaxMem= 12884901888 cpu:               1.2 elap:               0.4
 (Enter /project/qslin/software/g16/l302.exe)
 NPDir=0 NMtPBC=     1 NCelOv=     1 NCel=       1 NClECP=     1 NCelD=      1
         NCelK=      1 NCelE2=     1 NClLst=     1 CellRange=     0.0.
 One-electron integrals computed using PRISM.
 One-electron integral symmetry used in STVInt
 NBasis=   242 RedAO= T EigKep=  2.45D-05  NBF=   242
 NBsUse=   242 1.00D-06 EigRej= -1.00D+00 NBFU=   242
 Precomputing XC quadrature grid using
 IXCGrd= 4 IRadAn=           5 IRanWt=          -1 IRanGd=           0 AccXCQ= 0.00D+00.
 Generated NRdTot=       0 NPtTot=           0 NUsed=           0 NTot=          32
 NSgBfM=   260   260   260   260   260 MxSgAt=    16 MxSgA2=    16.
 Leave Link  302 at Thu Mar 12 11:38:06 2020, MaxMem= 12884901888 cpu:               8.3 elap:               0.8
 (Enter /project/qslin/software/g16/l303.exe)
 DipDrv:  MaxL=1.
 Leave Link  303 at Thu Mar 12 11:38:07 2020, MaxMem= 12884901888 cpu:               1.8 elap:               0.4
 (Enter /project/qslin/software/g16/l401.exe)
 ExpMin= 4.38D-02 ExpMax= 3.05D+03 ExpMxC= 4.57D+02 IAcc=3 IRadAn=         5 AccDes= 0.00D+00
 Harris functional with IExCor= 1009 and IRadAn=       5 diagonalized for initial guess.
 HarFok:  IExCor= 1009 AccDes= 0.00D+00 IRadAn=         5 IDoV= 1 UseB2=F ITyADJ=14
 ICtDFT=  3500011 ScaDFX=  1.000000  1.000000  1.000000  1.000000
 FoFCou: FMM=F IPFlag=           0 FMFlag=      100000 FMFlg1=           0
         NFxFlg=           0 DoJE=T BraDBF=F KetDBF=T FulRan=T
         wScrn=  0.000000 ICntrl=       500 IOpCl=  0 I1Cent=   200000004 NGrid=           0
         NMat0=    1 NMatS0=      1 NMatT0=    0 NMatD0=    1 NMtDS0=    0 NMtDT0=    0
 Petite list used in FoFCou.
 Harris En= -234.417291424198    
 JPrj=0 DoOrth=F DoCkMO=F.
 Leave Link  401 at Thu Mar 12 11:38:09 2020, MaxMem= 12884901888 cpu:              13.5 elap:               1.0
 (Enter /project/qslin/software/g16/l502.exe)
 Integral symmetry usage will be decided dynamically.
 Closed shell SCF:
 Using DIIS extrapolation, IDIIS=  1040.
 NGot= 12884901888 LenX= 12884759954 LenY= 12884691913
 Requested convergence on RMS density matrix=1.00D-08 within 128 cycles.
 Requested convergence on MAX density matrix=1.00D-06.
 Requested convergence on             energy=1.00D-06.
 No special actions if energy rises.
 Fock matrices will be formed incrementally for  20 cycles.

 Cycle   1  Pass 1  IDiag  1:
 FoFJK:  IHMeth= 1 ICntrl=       0 DoSepK=F KAlg= 0 I1Cent=           0 FoldK=F
 IRaf= 990000000 NMat=       1 IRICut=       1 DoRegI=T DoRafI=F ISym2E= 0 IDoP0=0 IntGTp=1.
 FoFCou: FMM=F IPFlag=           0 FMFlag=      100000 FMFlg1=           0
         NFxFlg=           0 DoJE=F BraDBF=F KetDBF=F FulRan=T
         wScrn=  0.000000 ICntrl=         0 IOpCl=  0 I1Cent=           0 NGrid=           0
         NMat0=    1 NMatS0=      1 NMatT0=    0 NMatD0=    1 NMtDS0=    0 NMtDT0=    0
 Symmetry not used in FoFCou.
 E= -234.178178298563    
 DIIS: error= 2.35D-02 at cycle   1 NSaved=   1.
 NSaved= 1 IEnMin= 1 EnMin= -234.178178298563     IErMin= 1 ErrMin= 2.35D-02
 ErrMax= 2.35D-02  0.00D+00 EMaxC= 1.00D-01 BMatC= 1.80D-01 BMatP= 1.80D-01
 IDIUse=3 WtCom= 7.65D-01 WtEn= 2.35D-01
 Coeff-Com:  0.100D+01
 Coeff-En:   0.100D+01
 Coeff:      0.100D+01
 Gap=     0.270 Goal=   None    Shift=    0.000
 GapD=    0.270 DampG=1.000 DampE=0.500 DampFc=0.5000 IDamp=-1.
 Damping current iteration by 5.00D-01
 RMSDP=6.88D-03 MaxDP=2.61D-01              OVMax= 1.76D-01

 Cycle   2  Pass 1  IDiag  1:
 RMSU=  3.43D-03    CP:  9.85D-01
 E= -234.278358728226     Delta-E=       -0.100180429663 Rises=F Damp=T
 DIIS: error= 4.94D-03 at cycle   2 NSaved=   2.
 NSaved= 2 IEnMin= 2 EnMin= -234.278358728226     IErMin= 2 ErrMin= 4.94D-03
 ErrMax= 4.94D-03  0.00D+00 EMaxC= 1.00D-01 BMatC= 9.18D-03 BMatP= 1.80D-01
 IDIUse=3 WtCom= 9.51D-01 WtEn= 4.94D-02
 Coeff-Com: -0.546D-01 0.105D+01
 Coeff-En:   0.000D+00 0.100D+01
 Coeff:     -0.519D-01 0.105D+01
 Gap=     0.318 Goal=   None    Shift=    0.000
 RMSDP=2.20D-03 MaxDP=1.37D-01 DE=-1.00D-01 OVMax= 9.84D-02

 Cycle   3  Pass 1  IDiag  1:
 RMSU=  1.97D-03    CP:  9.63D-01  7.30D-01
 E= -234.377993903768     Delta-E=       -0.099635175542 Rises=F Damp=F
 DIIS: error= 2.62D-03 at cycle   3 NSaved=   3.
 NSaved= 3 IEnMin= 3 EnMin= -234.377993903768     IErMin= 3 ErrMin= 2.62D-03
 ErrMax= 2.62D-03  0.00D+00 EMaxC= 1.00D-01 BMatC= 1.40D-03 BMatP= 9.18D-03
 IDIUse=3 WtCom= 9.74D-01 WtEn= 2.62D-02
 Coeff-Com: -0.499D-01 0.253D+00 0.797D+00
 Coeff-En:   0.000D+00 0.000D+00 0.100D+01
 Coeff:     -0.486D-01 0.246D+00 0.802D+00
 Gap=     0.262 Goal=   None    Shift=    0.000
 RMSDP=3.23D-04 MaxDP=9.50D-03 DE=-9.96D-02 OVMax= 9.49D-03

 Cycle   4  Pass 1  IDiag  1:
 RMSU=  3.16D-04    CP:  9.60D-01  7.40D-01  9.85D-01
 E= -234.379275206514     Delta-E=       -0.001281302746 Rises=F Damp=F
 DIIS: error= 5.02D-04 at cycle   4 NSaved=   4.
 NSaved= 4 IEnMin= 4 EnMin= -234.379275206514     IErMin= 4 ErrMin= 5.02D-04
 ErrMax= 5.02D-04  0.00D+00 EMaxC= 1.00D-01 BMatC= 9.37D-05 BMatP= 1.40D-03
 IDIUse=3 WtCom= 9.95D-01 WtEn= 5.02D-03
 Coeff-Com: -0.106D-01 0.208D-01 0.228D+00 0.761D+00
 Coeff-En:   0.000D+00 0.000D+00 0.000D+00 0.100D+01
 Coeff:     -0.106D-01 0.207D-01 0.227D+00 0.763D+00
 Gap=     0.262 Goal=   None    Shift=    0.000
 RMSDP=1.62D-04 MaxDP=5.88D-03 DE=-1.28D-03 OVMax= 3.79D-03

 Cycle   5  Pass 1  IDiag  1:
 RMSU=  1.25D-04    CP:  9.59D-01  7.26D-01  1.02D+00  7.89D-01
 E= -234.379361590818     Delta-E=       -0.000086384304 Rises=F Damp=F
 DIIS: error= 2.08D-04 at cycle   5 NSaved=   5.
 NSaved= 5 IEnMin= 5 EnMin= -234.379361590818     IErMin= 5 ErrMin= 2.08D-04
 ErrMax= 2.08D-04  0.00D+00 EMaxC= 1.00D-01 BMatC= 9.01D-06 BMatP= 9.37D-05
 IDIUse=3 WtCom= 9.98D-01 WtEn= 2.08D-03
 Coeff-Com: -0.390D-02 0.536D-02 0.858D-01 0.346D+00 0.567D+00
 Coeff-En:   0.000D+00 0.000D+00 0.000D+00 0.000D+00 0.100D+01
 Coeff:     -0.389D-02 0.535D-02 0.857D-01 0.345D+00 0.568D+00
 Gap=     0.262 Goal=   None    Shift=    0.000
 RMSDP=2.72D-05 MaxDP=7.65D-04 DE=-8.64D-05 OVMax= 1.84D-03

 Cycle   6  Pass 1  IDiag  1:
 RMSU=  2.28D-05    CP:  9.59D-01  7.22D-01  1.01D+00  8.05D-01  9.85D-01
 E= -234.379371554699     Delta-E=       -0.000009963881 Rises=F Damp=F
 DIIS: error= 7.78D-05 at cycle   6 NSaved=   6.
 NSaved= 6 IEnMin= 6 EnMin= -234.379371554699     IErMin= 6 ErrMin= 7.78D-05
 ErrMax= 7.78D-05  0.00D+00 EMaxC= 1.00D-01 BMatC= 1.01D-06 BMatP= 9.01D-06
 IDIUse=1 WtCom= 1.00D+00 WtEn= 0.00D+00
 Coeff-Com: -0.978D-04-0.737D-03 0.197D-02 0.365D-01 0.257D+00 0.705D+00
 Coeff:     -0.978D-04-0.737D-03 0.197D-02 0.365D-01 0.257D+00 0.705D+00
 Gap=     0.261 Goal=   None    Shift=    0.000
 RMSDP=1.14D-05 MaxDP=3.96D-04 DE=-9.96D-06 OVMax= 7.34D-04

 Cycle   7  Pass 1  IDiag  1:
 RMSU=  5.27D-06    CP:  9.59D-01  7.21D-01  1.01D+00  8.10D-01  1.06D+00
                    CP:  9.01D-01
 E= -234.379372779321     Delta-E=       -0.000001224622 Rises=F Damp=F
 DIIS: error= 1.46D-05 at cycle   7 NSaved=   7.
 NSaved= 7 IEnMin= 7 EnMin= -234.379372779321     IErMin= 7 ErrMin= 1.46D-05
 ErrMax= 1.46D-05  0.00D+00 EMaxC= 1.00D-01 BMatC= 7.74D-08 BMatP= 1.01D-06
 IDIUse=1 WtCom= 1.00D+00 WtEn= 0.00D+00
 Coeff-Com:  0.241D-03-0.640D-03-0.597D-02-0.120D-01 0.665D-01 0.297D+00
 Coeff-Com:  0.654D+00
 Coeff:      0.241D-03-0.640D-03-0.597D-02-0.120D-01 0.665D-01 0.297D+00
 Coeff:      0.654D+00
 Gap=     0.261 Goal=   None    Shift=    0.000
 RMSDP=3.90D-06 MaxDP=1.47D-04 DE=-1.22D-06 OVMax= 1.90D-04

 Cycle   8  Pass 1  IDiag  1:
 RMSU=  2.06D-06    CP:  9.59D-01  7.21D-01  1.01D+00  8.10D-01  1.08D+00
                    CP:  9.58D-01  1.09D+00
 E= -234.379372866319     Delta-E=       -0.000000086998 Rises=F Damp=F
 DIIS: error= 5.75D-06 at cycle   8 NSaved=   8.
 NSaved= 8 IEnMin= 8 EnMin= -234.379372866319     IErMin= 8 ErrMin= 5.75D-06
 ErrMax= 5.75D-06  0.00D+00 EMaxC= 1.00D-01 BMatC= 1.24D-08 BMatP= 7.74D-08
 IDIUse=1 WtCom= 1.00D+00 WtEn= 0.00D+00
 Coeff-Com:  0.142D-03-0.254D-03-0.361D-02-0.123D-01-0.561D-02 0.466D-01
 Coeff-Com:  0.312D+00 0.663D+00
 Coeff:      0.142D-03-0.254D-03-0.361D-02-0.123D-01-0.561D-02 0.466D-01
 Coeff:      0.312D+00 0.663D+00
 Gap=     0.261 Goal=   None    Shift=    0.000
 RMSDP=1.31D-06 MaxDP=4.23D-05 DE=-8.70D-08 OVMax= 7.04D-05

 Cycle   9  Pass 1  IDiag  1:
 RMSU=  6.53D-07    CP:  9.59D-01  7.21D-01  1.01D+00  8.10D-01  1.08D+00
                    CP:  9.73D-01  1.15D+00  8.94D-01
 E= -234.379372884126     Delta-E=       -0.000000017807 Rises=F Damp=F
 DIIS: error= 1.73D-06 at cycle   9 NSaved=   9.
 NSaved= 9 IEnMin= 9 EnMin= -234.379372884126     IErMin= 9 ErrMin= 1.73D-06
 ErrMax= 1.73D-06  0.00D+00 EMaxC= 1.00D-01 BMatC= 3.79D-10 BMatP= 1.24D-08
 IDIUse=1 WtCom= 1.00D+00 WtEn= 0.00D+00
 Coeff-Com: -0.215D-04 0.608D-04 0.353D-03 0.346D-03-0.700D-02-0.243D-01
 Coeff-Com: -0.628D-01 0.269D-01 0.107D+01
 Coeff:     -0.215D-04 0.608D-04 0.353D-03 0.346D-03-0.700D-02-0.243D-01
 Coeff:     -0.628D-01 0.269D-01 0.107D+01
 Gap=     0.261 Goal=   None    Shift=    0.000
 RMSDP=4.11D-07 MaxDP=8.95D-06 DE=-1.78D-08 OVMax= 3.79D-05

 Cycle  10  Pass 1  IDiag  1:
 RMSU=  2.30D-07    CP:  9.59D-01  7.21D-01  1.01D+00  8.10D-01  1.08D+00
                    CP:  9.78D-01  1.19D+00  9.67D-01  1.27D+00
 E= -234.379372886018     Delta-E=       -0.000000001892 Rises=F Damp=F
 DIIS: error= 4.72D-07 at cycle  10 NSaved=  10.
 NSaved=10 IEnMin=10 EnMin= -234.379372886018     IErMin=10 ErrMin= 4.72D-07
 ErrMax= 4.72D-07  0.00D+00 EMaxC= 1.00D-01 BMatC= 3.32D-11 BMatP= 3.79D-10
 IDIUse=1 WtCom= 1.00D+00 WtEn= 0.00D+00
 Coeff-Com: -0.131D-04 0.245D-04 0.281D-03 0.855D-03-0.175D-04-0.370D-02
 Coeff-Com: -0.326D-01-0.482D-01 0.102D+00 0.981D+00
 Coeff:     -0.131D-04 0.245D-04 0.281D-03 0.855D-03-0.175D-04-0.370D-02
 Coeff:     -0.326D-01-0.482D-01 0.102D+00 0.981D+00
 Gap=     0.261 Goal=   None    Shift=    0.000
 RMSDP=1.11D-07 MaxDP=2.30D-06 DE=-1.89D-09 OVMax= 1.03D-05

 Cycle  11  Pass 1  IDiag  1:
 RMSU=  5.92D-08    CP:  9.59D-01  7.21D-01  1.01D+00  8.10D-01  1.08D+00
                    CP:  9.78D-01  1.19D+00  9.86D-01  1.35D+00  1.23D+00
 E= -234.379372886154     Delta-E=       -0.000000000135 Rises=F Damp=F
 DIIS: error= 1.20D-07 at cycle  11 NSaved=  11.
 NSaved=11 IEnMin=11 EnMin= -234.379372886154     IErMin=11 ErrMin= 1.20D-07
 ErrMax= 1.20D-07  0.00D+00 EMaxC= 1.00D-01 BMatC= 2.61D-12 BMatP= 3.32D-11
 IDIUse=1 WtCom= 1.00D+00 WtEn= 0.00D+00
 Coeff-Com: -0.124D-05 0.687D-06 0.250D-04 0.116D-03 0.553D-03 0.147D-02
 Coeff-Com: -0.168D-02-0.104D-01-0.667D-01 0.149D+00 0.927D+00
 Coeff:     -0.124D-05 0.687D-06 0.250D-04 0.116D-03 0.553D-03 0.147D-02
 Coeff:     -0.168D-02-0.104D-01-0.667D-01 0.149D+00 0.927D+00
 Gap=     0.261 Goal=   None    Shift=    0.000
 RMSDP=6.21D-08 MaxDP=1.96D-06 DE=-1.35D-10 OVMax= 2.65D-06

 Cycle  12  Pass 1  IDiag  1:
 RMSU=  1.89D-08    CP:  9.59D-01  7.21D-01  1.01D+00  8.10D-01  1.08D+00
                    CP:  9.78D-01  1.19D+00  9.83D-01  1.37D+00  1.36D+00
                    CP:  1.09D+00
 E= -234.379372886162     Delta-E=       -0.000000000008 Rises=F Damp=F
 DIIS: error= 3.24D-08 at cycle  12 NSaved=  12.
 NSaved=12 IEnMin=12 EnMin= -234.379372886162     IErMin=12 ErrMin= 3.24D-08
 ErrMax= 3.24D-08  0.00D+00 EMaxC= 1.00D-01 BMatC= 2.15D-13 BMatP= 2.61D-12
 IDIUse=1 WtCom= 1.00D+00 WtEn= 0.00D+00
 Coeff-Com:  0.332D-06-0.999D-06-0.113D-04-0.288D-04 0.116D-03 0.587D-03
 Coeff-Com:  0.136D-02 0.134D-02-0.187D-01-0.333D-01 0.196D+00 0.853D+00
 Coeff:      0.332D-06-0.999D-06-0.113D-04-0.288D-04 0.116D-03 0.587D-03
 Coeff:      0.136D-02 0.134D-02-0.187D-01-0.333D-01 0.196D+00 0.853D+00
 Gap=     0.261 Goal=   None    Shift=    0.000
 RMSDP=7.17D-09 MaxDP=2.77D-07 DE=-8.47D-12 OVMax= 4.22D-07

 SCF Done:  E(RBMK) =  -234.379372886     A.U. after   12 cycles
            NFock= 12  Conv=0.72D-08     -V/T= 2.0090
 KE= 2.322921675879D+02 PE=-9.923988893331D+02 EE= 3.004730392844D+02
 Leave Link  502 at Thu Mar 12 11:38:29 2020, MaxMem= 12884901888 cpu:             306.2 elap:              19.5
 (Enter /project/qslin/software/g16/l801.exe)
 DoSCS=F DFT=T ScalE2(SS,OS)=  1.000000  1.000000
 Range of M.O.s used for correlation:     1   242
 NBasis=   242 NAE=    23 NBE=    23 NFC=     0 NFV=     0
 NROrb=    242 NOA=    23 NOB=    23 NVA=   219 NVB=   219

 **** Warning!!: The largest alpha MO coefficient is  0.58452419D+02

 Leave Link  801 at Thu Mar 12 11:38:30 2020, MaxMem= 12884901888 cpu:               1.0 elap:               0.3
 (Enter /project/qslin/software/g16/l1101.exe)
 Using compressed storage, NAtomX=    16.
 Will process     17 centers per pass.
 Leave Link 1101 at Thu Mar 12 11:38:31 2020, MaxMem= 12884901888 cpu:               9.6 elap:               0.9
 (Enter /project/qslin/software/g16/l1102.exe)
 Symmetrizing basis deriv contribution to polar:
 IMax=3 JMax=2 DiffMx= 0.00D+00
 Leave Link 1102 at Thu Mar 12 11:38:33 2020, MaxMem= 12884901888 cpu:               3.0 elap:               0.5
 (Enter /project/qslin/software/g16/l1110.exe)
 Forming Gx(P) for the SCF density, NAtomX=    16.
 Integral derivatives from FoFJK, PRISM(SPDF).
 Do as many integral derivatives as possible in FoFJK.
 G2DrvN: MDV=   12884900568.
 G2DrvN: will do    17 centers at a time, making    1 passes.
 Calling FoFCou, ICntrl=  3107 FMM=F I1Cent=   0 AccDes= 0.00D+00.
 FoFJK:  IHMeth= 1 ICntrl=    3107 DoSepK=F KAlg= 0 I1Cent=           0 FoldK=F
 IRaf=         0 NMat=       1 IRICut=       1 DoRegI=T DoRafI=F ISym2E= 0 IDoP0=0 IntGTp=1.
 FoFCou: FMM=F IPFlag=           0 FMFlag=      100000 FMFlg1=           0
         NFxFlg=           0 DoJE=F BraDBF=F KetDBF=F FulRan=T
         wScrn=  0.000000 ICntrl=      3107 IOpCl=  0 I1Cent=           0 NGrid=           0
         NMat0=    1 NMatS0=      1 NMatT0=    0 NMatD0=    1 NMtDS0=    0 NMtDT0=    0
 Symmetry not used in FoFCou.
 End of G2Drv F.D. properties file   721 does not exist.
 End of G2Drv F.D. properties file   722 does not exist.
 End of G2Drv F.D. properties file   788 does not exist.
 Leave Link 1110 at Thu Mar 12 11:39:12 2020, MaxMem= 12884901888 cpu:             617.4 elap:              39.0
 (Enter /project/qslin/software/g16/l1002.exe)
 Minotr:  Closed shell wavefunction.
          IDoAtm=1111111111111111
          Direct CPHF calculation.
          Differentiating once with respect to nuclear coordinates.
          Requested convergence is 1.0D-08 RMS, and 1.0D-07 maximum.
          Secondary convergence is 1.0D-12 RMS, and 1.0D-12 maximum.
          NewPWx=T KeepS1=F KeepF1=F KeepIn=T MapXYZ=F SortEE=F KeepMc=T.
         4839 words used for storage of precomputed grid.
 Keep R1 ints in memory in canonical form, NReq=449713943.
 FoFCou: FMM=F IPFlag=           0 FMFlag=           0 FMFlg1=           0
         NFxFlg=           0 DoJE=F BraDBF=F KetDBF=F FulRan=T
         wScrn=  0.000000 ICntrl=       600 IOpCl=  0 I1Cent=           0 NGrid=           0
         NMat0=    1 NMatS0=  29403 NMatT0=    0 NMatD0=    1 NMtDS0=    0 NMtDT0=    0
 Symmetry not used in FoFCou.
 Two-electron integral symmetry not used.
          MDV=   12884901888 using IRadAn=       1.
          Solving linear equations simultaneously, MaxMat=       0.
          There are    51 degrees of freedom in the 1st order CPHF.  IDoFFX=6 NUNeed=     0.
     45 vectors produced by pass  0 Test12= 9.88D-15 1.96D-09 XBig12= 1.00D-01 1.20D-01.
 AX will form    45 AO Fock derivatives at one time.
     45 vectors produced by pass  1 Test12= 9.88D-15 1.96D-09 XBig12= 8.42D-03 2.96D-02.
     45 vectors produced by pass  2 Test12= 9.88D-15 1.96D-09 XBig12= 2.40D-04 2.42D-03.
     45 vectors produced by pass  3 Test12= 9.88D-15 1.96D-09 XBig12= 1.64D-06 1.42D-04.
     45 vectors produced by pass  4 Test12= 9.88D-15 1.96D-09 XBig12= 9.41D-09 1.18D-05.
     45 vectors produced by pass  5 Test12= 9.88D-15 1.96D-09 XBig12= 3.96D-11 7.27D-07.
     27 vectors produced by pass  6 Test12= 9.88D-15 1.96D-09 XBig12= 1.33D-13 3.88D-08.
 InvSVY:  IOpt=1 It=  1 EMax= 3.89D-16
 Solved reduced A of dimension   297 with    51 vectors.
 End of Minotr F.D. properties file   721 does not exist.
 End of Minotr F.D. properties file   722 does not exist.
 End of Minotr F.D. properties file   788 does not exist.
 Leave Link 1002 at Thu Mar 12 11:40:01 2020, MaxMem= 12884901888 cpu:             760.1 elap:              47.9
 (Enter /project/qslin/software/g16/l601.exe)
 Copying SCF densities to generalized density rwf, IOpCl= 0 IROHF=0.

 **********************************************************************

            Population analysis using the SCF density.

 **********************************************************************

 Orbital symmetries:
       Occupied  (A) (A) (A) (A) (A) (A) (A) (A) (A) (A) (A) (A)
                 (A) (A) (A) (A) (A) (A) (A) (A) (A) (A) (A)
       Virtual   (A) (A) (A) (A) (A) (A) (A) (A) (A) (A) (A) (A)
                 (A) (A) (A) (A) (A) (A) (A) (A) (A) (A) (A) (A)
                 (A) (A) (A) (A) (A) (A) (A) (A) (A) (A) (A) (A)
                 (A) (A) (A) (A) (A) (A) (A) (A) (A) (A) (A) (A)
                 (A) (A) (A) (A) (A) (A) (A) (A) (A) (A) (A) (A)
                 (A) (A) (A) (A) (A) (A) (A) (A) (A) (A) (A) (A)
                 (A) (A) (A) (A) (A) (A) (A) (A) (A) (A) (A) (A)
                 (A) (A) (A) (A) (A) (A) (A) (A) (A) (A) (A) (A)
                 (A) (A) (A) (A) (A) (A) (A) (A) (A) (A) (A) (A)
                 (A) (A) (A) (A) (A) (A) (A) (A) (A) (A) (A) (A)
                 (A) (A) (A) (A) (A) (A) (A) (A) (A) (A) (A) (A)
                 (A) (A) (A) (A) (A) (A) (A) (A) (A) (A) (A) (A)
                 (A) (A) (A) (A) (A) (A) (A) (A) (A) (A) (A) (A)
                 (A) (A) (A) (A) (A) (A) (A) (A) (A) (A) (A) (A)
                 (A) (A) (A) (A) (A) (A) (A) (A) (A) (A) (A) (A)
                 (A) (A) (A) (A) (A) (A) (A) (A) (A) (A) (A) (A)
                 (A) (A) (A) (A) (A) (A) (A) (A) (A) (A) (A) (A)
                 (A) (A) (A) (A) (A) (A) (A) (A) (A) (A) (A) (A)
                 (A) (A) (A)
 The electronic state is 1-A.
 Alpha  occ. eigenvalues --  -10.48011 -10.48009 -10.47503 -10.47421 -10.47033
 Alpha  occ. eigenvalues --  -10.46967  -0.88451  -0.81755  -0.78704  -0.68459
 Alpha  occ. eigenvalues --   -0.64009  -0.57351  -0.54524  -0.51567  -0.47477
 Alpha  occ. eigenvalues --   -0.45132  -0.45017  -0.40726  -0.39647  -0.38944
 Alpha  occ. eigenvalues --   -0.38068  -0.26074  -0.26050
 Alpha virt. eigenvalues --    0.00079   0.03153   0.05401   0.05736   0.06144
 Alpha virt. eigenvalues --    0.07719   0.08508   0.08855   0.10151   0.11065
 Alpha virt. eigenvalues --    0.11879   0.13094   0.13566   0.13618   0.14891
 Alpha virt. eigenvalues --    0.14979   0.15564   0.16531   0.16630   0.18298
 Alpha virt. eigenvalues --    0.18505   0.19887   0.20869   0.21253   0.22575
 Alpha virt. eigenvalues --    0.24027   0.24801   0.25111   0.25742   0.30697
 Alpha virt. eigenvalues --    0.30713   0.34524   0.34746   0.36103   0.36832
 Alpha virt. eigenvalues --    0.37821   0.38777   0.39865   0.44917   0.47427
 Alpha virt. eigenvalues --    0.48290   0.55402   0.61099   0.62992   0.65400
 Alpha virt. eigenvalues --    0.67329   0.69902   0.70234   0.71418   0.73284
 Alpha virt. eigenvalues --    0.73750   0.74281   0.75304   0.77240   0.78687
 Alpha virt. eigenvalues --    0.81017   0.81259   0.85240   0.85572   0.86250
 Alpha virt. eigenvalues --    0.89210   0.91322   0.91591   0.94462   0.94492
 Alpha virt. eigenvalues --    0.94773   0.98664   0.99291   0.99749   1.00581
 Alpha virt. eigenvalues --    1.04410   1.04937   1.08879   1.11153   1.14018
 Alpha virt. eigenvalues --    1.14368   1.16332   1.18216   1.22831   1.25237
 Alpha virt. eigenvalues --    1.27644   1.30348   1.36304   1.43168   1.53245
 Alpha virt. eigenvalues --    1.53708   1.57845   1.60429   1.64647   1.71028
 Alpha virt. eigenvalues --    1.75004   1.75716   1.77437   1.77558   1.80536
 Alpha virt. eigenvalues --    1.81344   1.83060   1.84158   1.85032   1.92066
 Alpha virt. eigenvalues --    1.99125   1.99222   2.04369   2.14852   2.17744
 Alpha virt. eigenvalues --    2.19455   2.25158   2.25946   2.33353   2.34551
 Alpha virt. eigenvalues --    2.37396   2.42111   2.47768   2.50954   2.56744
 Alpha virt. eigenvalues --    2.58886   2.64726   2.71191   2.75484   2.80988
 Alpha virt. eigenvalues --    2.82133   2.84126   2.86512   2.91481   2.94509
 Alpha virt. eigenvalues --    2.95465   2.95716   3.00741   3.01121   3.03040
 Alpha virt. eigenvalues --    3.04525   3.05035   3.06912   3.08602   3.11919
 Alpha virt. eigenvalues --    3.12698   3.17540   3.21085   3.24627   3.24741
 Alpha virt. eigenvalues --    3.27189   3.28389   3.29868   3.32570   3.33374
 Alpha virt. eigenvalues --    3.34352   3.35857   3.37493   3.39978   3.41697
 Alpha virt. eigenvalues --    3.42796   3.48110   3.53569   3.57714   3.57985
 Alpha virt. eigenvalues --    3.60019   3.65029   3.66955   3.70235   3.72642
 Alpha virt. eigenvalues --    3.77598   3.80712   3.82379   3.83768   3.84030
 Alpha virt. eigenvalues --    3.88400   3.91720   3.92100   4.02906   4.14325
 Alpha virt. eigenvalues --    4.15625   4.18227   4.19161   4.24501   4.27884
 Alpha virt. eigenvalues --    4.31774   4.38132   4.43403   4.46056   4.48177
 Alpha virt. eigenvalues --    4.54590   4.55250   4.57416   4.59447   4.61374
 Alpha virt. eigenvalues --    4.67459   4.70049   4.71423   4.71913   4.73270
 Alpha virt. eigenvalues --    4.80263   4.82062   4.86876   4.90267   4.93850
 Alpha virt. eigenvalues --    5.01761   5.02255   5.06245   5.06669   5.16274
 Alpha virt. eigenvalues --    5.17825   5.20452   5.20749   5.26982   5.30823
 Alpha virt. eigenvalues --    5.50105   5.53633   5.62760   5.62956   5.76870
 Alpha virt. eigenvalues --    5.85483   6.73398   7.21876  11.06761  11.17664
 Alpha virt. eigenvalues --   11.82285  11.85056  12.43251  12.47627
          Condensed to atoms (all electrons):
               1          2          3          4          5          6
     1  C    4.849427   0.460291   0.343116  -0.011636   0.034598   0.013749
     2  C    0.460291   4.849691  -0.011638   0.343113   0.448452   0.018578
     3  H    0.343116  -0.011638   0.580938  -0.008305  -0.007879  -0.000116
     4  H   -0.011636   0.343113  -0.008305   0.580950  -0.033745  -0.006295
     5  C    0.034598   0.448452  -0.007879  -0.033745   5.408883   0.321118
     6  H    0.013749   0.018578  -0.000116  -0.006295   0.321118   0.534048
     7  H   -0.015853   0.011585  -0.000064   0.005041   0.350514  -0.035103
     8  C    0.448545   0.034597  -0.033751  -0.007888  -0.240523   0.010194
     9  H    0.011563  -0.015836   0.005040  -0.000064  -0.000972   0.000058
    10  H    0.018566   0.013756  -0.006293  -0.000116   0.010191  -0.000006
    11  C    0.037419  -0.111782   0.018737  -0.013307  -0.213083   0.016642
    12  H    0.005002  -0.001524  -0.000050   0.000005   0.018870  -0.000033
    13  H    0.003404  -0.004109   0.000053   0.000010   0.003788  -0.000025
    14  C   -0.111740   0.037294  -0.013301   0.018746   0.274453  -0.024530
    15  H   -0.004113   0.003408   0.000010   0.000053  -0.009604  -0.000846
    16  H   -0.001521   0.005012   0.000005  -0.000050  -0.031502   0.000285
               7          8          9         10         11         12
     1  C   -0.015853   0.448545   0.011563   0.018566   0.037419   0.005002
     2  C    0.011585   0.034597  -0.015836   0.013756  -0.111782  -0.001524
     3  H   -0.000064  -0.033751   0.005040  -0.006293   0.018737  -0.000050
     4  H    0.005041  -0.007888  -0.000064  -0.000116  -0.013307   0.000005
     5  C    0.350514  -0.240523  -0.000972   0.010191  -0.213083   0.018870
     6  H   -0.035103   0.010194   0.000058  -0.000006   0.016642  -0.000033
     7  H    0.559714  -0.000965   0.005411   0.000058  -0.016487   0.000237
     8  C   -0.000965   5.408942   0.350526   0.321124   0.274376  -0.031495
     9  H    0.005411   0.350526   0.559706  -0.035103  -0.006425  -0.003635
    10  H    0.000058   0.321124  -0.035103   0.534046  -0.024524   0.000285
    11  C   -0.016487   0.274376  -0.006425  -0.024524   5.430708   0.379704
    12  H    0.000237  -0.031495  -0.003635   0.000285   0.379704   0.537604
    13  H   -0.000050  -0.009599   0.000778  -0.000845   0.340328  -0.032318
    14  C   -0.006429  -0.213101  -0.016482   0.016640   0.239520  -0.026975
    15  H    0.000779   0.003795  -0.000050  -0.000025   0.009429   0.004409
    16  H   -0.003634   0.018867   0.000237  -0.000033  -0.027001  -0.007529
              13         14         15         16
     1  C    0.003404  -0.111740  -0.004113  -0.001521
     2  C   -0.004109   0.037294   0.003408   0.005012
     3  H    0.000053  -0.013301   0.000010   0.000005
     4  H    0.000010   0.018746   0.000053  -0.000050
     5  C    0.003788   0.274453  -0.009604  -0.031502
     6  H   -0.000025  -0.024530  -0.000846   0.000285
     7  H   -0.000050  -0.006429   0.000779  -0.003634
     8  C   -0.009599  -0.213101   0.003795   0.018867
     9  H    0.000778  -0.016482  -0.000050   0.000237
    10  H   -0.000845   0.016640  -0.000025  -0.000033
    11  C    0.340328   0.239520   0.009429  -0.027001
    12  H   -0.032318  -0.026975   0.004409  -0.007529
    13  H    0.531464   0.009450  -0.007077   0.004408
    14  C    0.009450   5.430813   0.340348   0.379730
    15  H   -0.007077   0.340348   0.531468  -0.032315
    16  H    0.004408   0.379730  -0.032315   0.537594
 Mulliken charges:
               1
     1  C   -0.080817
     2  C   -0.080888
     3  H    0.133498
     4  H    0.133488
     5  C   -0.333560
     6  H    0.152282
     7  H    0.145246
     8  C   -0.333645
     9  H    0.145247
    10  H    0.152280
    11  C   -0.334256
    12  H    0.157443
    13  H    0.160339
    14  C   -0.334437
    15  H    0.160333
    16  H    0.157446
 Sum of Mulliken charges =  -0.00000
 Mulliken charges with hydrogens summed into heavy atoms:
               1
     1  C    0.052680
     2  C    0.052600
     5  C   -0.036031
     8  C   -0.036118
    11  C   -0.016474
    14  C   -0.016657
 APT charges:
               1
     1  C   -0.584886
     2  C   -0.584936
     3  H    0.486284
     4  H    0.486255
     5  C   -0.699651
     6  H    0.525156
     7  H    0.296343
     8  C   -0.699680
     9  H    0.296322
    10  H    0.525181
    11  C   -0.867185
    12  H    0.456512
    13  H    0.387532
    14  C   -0.867410
    15  H    0.387587
    16  H    0.456577
 Sum of APT charges =  -0.00000
 APT charges with hydrogens summed into heavy atoms:
               1
     1  C   -0.098603
     2  C   -0.098681
     5  C    0.121848
     8  C    0.121823
    11  C   -0.023142
    14  C   -0.023246
 Electronic spatial extent (au):  <R**2>=            611.1102
 Charge=             -0.0000 electrons
 Dipole moment (field-independent basis, Debye):
    X=              0.4426    Y=             -0.0002    Z=             -0.0353  Tot=              0.4440
 Quadrupole moment (field-independent basis, Debye-Ang):
   XX=            -42.9052   YY=            -36.0762   ZZ=            -37.3389
   XY=              0.0025   XZ=              3.3789   YZ=             -0.0011
 Traceless Quadrupole moment (field-independent basis, Debye-Ang):
   XX=             -4.1318   YY=              2.6972   ZZ=              1.4346
   XY=              0.0025   XZ=              3.3789   YZ=             -0.0011
 Octapole moment (field-independent basis, Debye-Ang**2):
  XXX=             -1.8114  YYY=             -0.0023  ZZZ=              0.0188  XYY=              1.7517
  XXY=              0.0021  XXZ=             -1.9473  XZZ=              1.3970  YZZ=             -0.0002
  YYZ=             -1.7590  XYZ=             -0.0003
 Hexadecapole moment (field-independent basis, Debye-Ang**3):
 XXXX=           -458.1705 YYYY=           -315.9542 ZZZZ=           -108.8971 XXXY=              0.0179
 XXXZ=             23.6048 YYYX=              0.0105 YYYZ=             -0.0067 ZZZX=              5.6280
 ZZZY=             -0.0018 XXYY=           -127.1600 XXZZ=            -86.5391 YYZZ=            -74.3278
 XXYZ=             -0.0029 YYXZ=              6.3669 ZZXY=              0.0013
 N-N= 2.252543095746D+02 E-N=-9.923988887016D+02  KE= 2.322921675879D+02
  Exact polarizability:   0.000   0.000   0.000   0.000   0.000   0.000
 Approx polarizability: 125.109   0.000 122.471   4.456  -0.002  77.662
 No NMR shielding tensors so no spin-rotation constants.
 Leave Link  601 at Thu Mar 12 11:40:03 2020, MaxMem= 12884901888 cpu:               9.9 elap:               1.0
 (Enter /project/qslin/software/g16/l701.exe)
 ... and contract with generalized density number  0.
 Compute integral second derivatives.
 Leave Link  701 at Thu Mar 12 11:40:04 2020, MaxMem= 12884901888 cpu:              11.4 elap:               0.9
 (Enter /project/qslin/software/g16/l702.exe)
 L702 exits ... SP integral derivatives will be done elsewhere.
 Leave Link  702 at Thu Mar 12 11:40:05 2020, MaxMem= 12884901888 cpu:               0.9 elap:               0.2
 (Enter /project/qslin/software/g16/l703.exe)
 Integral derivatives from FoFJK, PRISM(SPDF).
 Compute integral second derivatives, UseDBF=F ICtDFT=           0.
 Calling FoFJK, ICntrl=    100147 FMM=F ISym2X=0 I1Cent= 0 IOpClX= 0 NMat=1 NMatS=1 NMatT=0.
 FoFJK:  IHMeth= 1 ICntrl=  100147 DoSepK=F KAlg= 0 I1Cent=           0 FoldK=F
 IRaf=         0 NMat=       1 IRICut=       1 DoRegI=T DoRafI=F ISym2E= 0 IDoP0=0 IntGTp=1.
 FoFCou: FMM=F IPFlag=           0 FMFlag=      100000 FMFlg1=         800
         NFxFlg=           0 DoJE=F BraDBF=F KetDBF=F FulRan=T
         wScrn=  0.000000 ICntrl=    100147 IOpCl=  0 I1Cent=           0 NGrid=           0
         NMat0=    1 NMatS0=      1 NMatT0=    0 NMatD0=    1 NMtDS0=    0 NMtDT0=    0
 Symmetry not used in FoFCou.
 Leave Link  703 at Thu Mar 12 11:41:21 2020, MaxMem= 12884901888 cpu:            1210.6 elap:              76.1
 (Enter /project/qslin/software/g16/l716.exe)
 Dipole        = 1.74132718D-01-7.48307463D-05-1.38946484D-02
 Polarizability= 0.00000000D+00 0.00000000D+00 0.00000000D+00
                 0.00000000D+00 0.00000000D+00 0.00000000D+00
 ***** Axes restored to original set *****
 -------------------------------------------------------------------
 Center     Atomic                   Forces (Hartrees/Bohr)
 Number     Number              X              Y              Z
 -------------------------------------------------------------------
      1        6           0.005114312    0.005518371   -0.004382035
      2        6           0.005095550   -0.005530817   -0.004397255
      3        1           0.000976065    0.000977784   -0.001509822
      4        1           0.000980521   -0.000973690   -0.001509078
      5        6          -0.003025858   -0.004329686    0.005026333
      6        1          -0.000499638   -0.002589012   -0.000230646
      7        1          -0.001097459    0.000600128    0.001574058
      8        6          -0.003015564    0.004328865    0.005026528
      9        1          -0.001095450   -0.000599313    0.001573792
     10        1          -0.000502168    0.002588510   -0.000234117
     11        6          -0.001418944    0.007799161   -0.000471108
     12        1          -0.000587416    0.001584306    0.001850231
     13        1           0.000537083    0.001470626   -0.001845977
     14        6          -0.001426447   -0.007774054   -0.000484564
     15        1           0.000544288   -0.001481104   -0.001838082
     16        1          -0.000578877   -0.001590075    0.001851742
 -------------------------------------------------------------------
 Cartesian Forces:  Max     0.007799161 RMS     0.003022480
 FormGI is forming the generalized inverse of G from B-inverse, IUseBI=4.
 Leave Link  716 at Thu Mar 12 11:41:23 2020, MaxMem= 12884901888 cpu:               3.8 elap:               0.5
 (Enter /project/qslin/software/g16/l103.exe)

 GradGradGradGradGradGradGradGradGradGradGradGradGradGradGradGradGradGrad
 Berny optimization.
 Red2BG is reusing G-inverse.
 Internal  Forces:  Max     0.012172430 RMS     0.002322181
 Search for a saddle point.
 Step number   1 out of a maximum of  100
 All quantities printed in internal units (Hartrees-Bohrs-Radians)
 Swapping is turned off.
 Second derivative matrix not updated -- analytic derivatives used.
 ITU=  0
     Eigenvalues ---   -0.03794   0.00100   0.00349   0.00667   0.01232
     Eigenvalues ---    0.01449   0.01647   0.01731   0.01854   0.01911
     Eigenvalues ---    0.02065   0.02227   0.02256   0.02588   0.02897
     Eigenvalues ---    0.03709   0.04651   0.04799   0.05439   0.06262
     Eigenvalues ---    0.06558   0.07453   0.08465   0.10030   0.11235
     Eigenvalues ---    0.12317   0.12556   0.15824   0.31053   0.32555
     Eigenvalues ---    0.34589   0.36072   0.36181   0.36715   0.36776
     Eigenvalues ---    0.36805   0.37222   0.37298   0.38022   0.47103
     Eigenvalues ---    0.47411   0.52306
 Eigenvectors required to have negative eigenvalues:
                          R8        R12       D12       D5        D15
   1                   -0.58435  -0.52674  -0.22224   0.18584  -0.18310
                          A17       D8        R13       D42       D47
   1                   -0.17054   0.15019  -0.14914  -0.14209   0.13464
 RFO step:  Lambda0=1.614314646D-05 Lambda=-1.09705193D-03.
 Linear search not attempted -- option 19 set.
 Iteration  1 RMS(Cart)=  0.00745061 RMS(Int)=  0.00001760
 Iteration  2 RMS(Cart)=  0.00002167 RMS(Int)=  0.00000582
 Iteration  3 RMS(Cart)=  0.00000000 RMS(Int)=  0.00000582
 ITry= 1 IFail=0 DXMaxC= 1.98D-02 DCOld= 1.00D+10 DXMaxT= 3.00D-01 DXLimC= 3.00D+00 Rises=F
 Variable       Old X    -DE/DX   Delta X   Delta X   Delta X     New X
                                 (Linear)    (Quad)   (Total)
    R1        2.65106   0.01150   0.00000   0.02057   0.02058   2.67163
    R2        2.05261   0.00204   0.00000   0.00497   0.00497   2.05757
    R3        2.59021   0.00985   0.00000   0.02162   0.02163   2.61185
    R4        2.05261   0.00204   0.00000   0.00496   0.00496   2.05757
    R5        2.59023   0.00981   0.00000   0.02166   0.02166   2.61189
    R6        2.04912   0.00262   0.00000   0.00699   0.00699   2.05611
    R7        2.04450   0.00174   0.00000   0.00513   0.00513   2.04964
    R8        4.29688   0.00169   0.00000  -0.00802  -0.00803   4.28884
    R9        4.54439   0.00024   0.00000   0.00100   0.00100   4.54539
   R10        2.04450   0.00181   0.00000   0.00512   0.00512   2.04963
   R11        2.04912   0.00262   0.00000   0.00699   0.00699   2.05611
   R12        4.29706   0.00159   0.00000  -0.00663  -0.00664   4.29042
   R13        4.54441   0.00059   0.00000   0.00147   0.00148   4.54588
   R14        4.43388  -0.00016   0.00000  -0.00076  -0.00076   4.43313
   R15        2.04801   0.00231   0.00000   0.00626   0.00626   2.05427
   R16        2.04415   0.00239   0.00000   0.00616   0.00616   2.05031
   R17        2.59506   0.01217   0.00000   0.02531   0.02530   2.62036
   R18        2.04416   0.00239   0.00000   0.00616   0.00616   2.05031
   R19        2.04801   0.00242   0.00000   0.00627   0.00627   2.05428
    A1        2.05966   0.00020   0.00000   0.00135   0.00134   2.06101
    A2        2.12775  -0.00045   0.00000  -0.00376  -0.00375   2.12400
    A3        2.07358   0.00020   0.00000   0.00183   0.00182   2.07540
    A4        2.05968   0.00023   0.00000   0.00133   0.00133   2.06101
    A5        2.12777  -0.00050   0.00000  -0.00384  -0.00383   2.12393
    A6        2.07350   0.00022   0.00000   0.00193   0.00193   2.07542
    A7        2.09780   0.00004   0.00000  -0.00062  -0.00062   2.09718
    A8        2.10929   0.00022   0.00000  -0.00084  -0.00084   2.10845
    A9        1.77278  -0.00008   0.00000   0.00311   0.00312   1.77590
   A10        2.00882   0.00007   0.00000   0.00048   0.00047   2.00929
   A11        1.81533   0.00020   0.00000  -0.00389  -0.00389   1.81144
   A12        2.10930   0.00024   0.00000  -0.00075  -0.00075   2.10855
   A13        2.09782  -0.00003   0.00000  -0.00061  -0.00060   2.09721
   A14        1.77266  -0.00010   0.00000   0.00298   0.00299   1.77566
   A15        2.00882  -0.00000   0.00000   0.00051   0.00051   2.00933
   A16        1.81548   0.00033   0.00000  -0.00373  -0.00374   1.81175
   A17        1.50277   0.00061   0.00000  -0.00395  -0.00395   1.49882
   A18        1.56783  -0.00040   0.00000  -0.00163  -0.00163   1.56620
   A19        1.57908  -0.00058   0.00000   0.00354   0.00355   1.58263
   A20        1.90203   0.00081   0.00000   0.00061   0.00060   1.90263
   A21        2.03051  -0.00026   0.00000   0.00499   0.00500   2.03551
   A22        1.71832   0.00057   0.00000  -0.00087  -0.00088   1.71745
   A23        2.01709  -0.00016   0.00000   0.00051   0.00051   2.01760
   A24        2.09622  -0.00001   0.00000   0.00014   0.00015   2.09637
   A25        2.10006   0.00020   0.00000  -0.00160  -0.00161   2.09846
   A26        1.90193   0.00080   0.00000   0.00091   0.00090   1.90283
   A27        1.57932  -0.00059   0.00000   0.00360   0.00361   1.58293
   A28        1.56810  -0.00039   0.00000  -0.00197  -0.00196   1.56613
   A29        1.71828   0.00052   0.00000  -0.00092  -0.00092   1.71736
   A30        2.03075  -0.00026   0.00000   0.00518   0.00518   2.03594
   A31        1.28862  -0.00050   0.00000  -0.00169  -0.00168   1.28694
   A32        2.09992   0.00021   0.00000  -0.00153  -0.00154   2.09838
   A33        2.09614   0.00003   0.00000   0.00019   0.00019   2.09634
   A34        2.01715  -0.00021   0.00000   0.00037   0.00037   2.01753
    D1       -0.00013   0.00001   0.00000   0.00008   0.00008  -0.00006
    D2       -2.91389   0.00024   0.00000   0.00269   0.00268  -2.91121
    D3        2.91385  -0.00021   0.00000  -0.00259  -0.00258   2.91127
    D4        0.00009   0.00003   0.00000   0.00002   0.00002   0.00011
    D5        0.53244  -0.00023   0.00000   0.00654   0.00653   0.53897
    D6       -3.01372   0.00035   0.00000   0.00424   0.00423  -3.00949
    D7       -1.02574   0.00067   0.00000   0.00144   0.00143  -1.02432
    D8       -2.83852  -0.00045   0.00000   0.00379   0.00379  -2.83473
    D9       -0.10149   0.00014   0.00000   0.00148   0.00148  -0.10001
   D10        1.88649   0.00046   0.00000  -0.00131  -0.00132   1.88517
   D11        3.01357  -0.00051   0.00000  -0.00401  -0.00400   3.00957
   D12       -0.53264   0.00043   0.00000  -0.00673  -0.00672  -0.53935
   D13        1.02570  -0.00072   0.00000  -0.00110  -0.00109   1.02462
   D14        0.10154  -0.00028   0.00000  -0.00129  -0.00129   0.10026
   D15        2.83853   0.00067   0.00000  -0.00401  -0.00401   2.83452
   D16       -1.88632  -0.00049   0.00000   0.00162   0.00162  -1.88470
   D17       -0.87498  -0.00018   0.00000  -0.00256  -0.00255  -0.87754
   D18        1.26237  -0.00001   0.00000  -0.00253  -0.00252   1.25985
   D19       -3.00367  -0.00023   0.00000  -0.00216  -0.00216  -3.00583
   D20       -3.06478  -0.00027   0.00000  -0.00161  -0.00160  -3.06638
   D21       -0.92743  -0.00010   0.00000  -0.00157  -0.00156  -0.92899
   D22        1.08972  -0.00032   0.00000  -0.00121  -0.00121   1.08851
   D23       -2.11120   0.00011   0.00000  -0.00713  -0.00714  -2.11833
   D24        1.41552  -0.00044   0.00000  -0.00471  -0.00472   1.41081
   D25        3.00377   0.00018   0.00000   0.00151   0.00151   3.00528
   D26       -1.26234   0.00001   0.00000   0.00201   0.00201  -1.26033
   D27        0.87509   0.00018   0.00000   0.00189   0.00188   0.87697
   D28       -1.08959   0.00024   0.00000   0.00058   0.00058  -1.08901
   D29        0.92749   0.00007   0.00000   0.00108   0.00108   0.92857
   D30        3.06491   0.00024   0.00000   0.00096   0.00095   3.06586
   D31       -2.18183   0.00029   0.00000   0.00267   0.00266  -2.17917
   D32       -0.00005  -0.00001   0.00000   0.00033   0.00033   0.00028
   D33        0.43882   0.00032   0.00000   0.00103   0.00103   0.43985
   D34       -1.78393   0.00009   0.00000  -0.00406  -0.00406  -1.78799
   D35        1.76802   0.00004   0.00000  -0.00143  -0.00143   1.76658
   D36       -0.43890  -0.00036   0.00000  -0.00042  -0.00042  -0.43932
   D37       -0.00003  -0.00002   0.00000   0.00028   0.00028   0.00025
   D38       -2.22278  -0.00025   0.00000  -0.00481  -0.00480  -2.22759
   D39        1.32916  -0.00030   0.00000  -0.00218  -0.00218   1.32699
   D40       -1.76788  -0.00004   0.00000   0.00189   0.00190  -1.76599
   D41       -1.32901   0.00029   0.00000   0.00259   0.00259  -1.32642
   D42        2.73142   0.00006   0.00000  -0.00250  -0.00249   2.72893
   D43        0.00018   0.00001   0.00000   0.00013   0.00013   0.00032
   D44        1.78366  -0.00009   0.00000   0.00442   0.00442   1.78808
   D45        2.22253   0.00024   0.00000   0.00512   0.00512   2.22765
   D46       -0.00022   0.00001   0.00000   0.00003   0.00003  -0.00019
   D47       -2.73146  -0.00004   0.00000   0.00266   0.00265  -2.72880
         Item               Value     Threshold  Converged?
 Maximum Force            0.012172     0.000450     NO 
 RMS     Force            0.002322     0.000300     NO 
 Maximum Displacement     0.019824     0.001800     NO 
 RMS     Displacement     0.007448     0.001200     NO 
 Predicted change in Energy=-5.419100D-04
 Lowest energy point so far.  Saving SCF results.
 GradGradGradGradGradGradGradGradGradGradGradGradGradGradGradGradGradGrad

 Leave Link  103 at Thu Mar 12 11:41:23 2020, MaxMem= 12884901888 cpu:               7.1 elap:               0.5
 (Enter /project/qslin/software/g16/l202.exe)
                          Input orientation:                          
 ---------------------------------------------------------------------
 Center     Atomic      Atomic             Coordinates (Angstroms)
 Number     Number       Type             X           Y           Z
 ---------------------------------------------------------------------
      1          6           0        1.316643    0.706524   -0.298116
      2          6           0        1.316086   -0.707243   -0.298087
      3          1           0        1.858103    1.218923   -1.091712
      4          1           0        1.857095   -1.220106   -1.091689
      5          6           0        0.448790   -1.433014    0.496523
      6          1           0        0.382977   -2.513681    0.388487
      7          1           0        0.114179   -1.044534    1.452307
      8          6           0        0.450059    1.433075    0.496516
      9          1           0        0.114900    1.044884    1.452219
     10          1           0        0.385063    2.513779    0.388371
     11          6           0       -1.570667    0.693617   -0.227745
     12          1           0       -2.053785    1.238972    0.579044
     13          1           0       -1.451780    1.239987   -1.157538
     14          6           0       -1.570755   -0.693018   -0.227863
     15          1           0       -1.452109   -1.239178   -1.157817
     16          1           0       -2.054208   -1.238424    0.578699
 ---------------------------------------------------------------------
                    Distance matrix (angstroms):
                    1          2          3          4          5
     1  C    0.000000
     2  C    1.413767   0.000000
     3  H    1.088820   2.152612   0.000000
     4  H    2.152616   1.088818   2.439030   0.000000
     5  C    2.441770   1.382154   3.397267   2.133324   0.000000
     6  H    3.422408   2.145995   4.277771   2.457088   1.088046
     7  H    2.752472   2.149936   3.825774   3.088770   1.084622
     8  C    1.382130   2.441794   2.133288   3.397281   2.866089
     9  H    2.149964   2.752520   3.088792   3.825820   2.676717
    10  H    2.145991   3.422428   2.457061   4.277775   3.948789
    11  C    2.888196   3.209470   3.574752   4.019738   3.020817
    12  H    3.523165   3.989127   4.253786   4.912575   3.661858
    13  H    2.947432   3.491625   3.310605   4.123718   3.673285
    14  C    3.209473   2.887729   4.019804   3.574097   2.269558
    15  H    3.491537   2.947031   4.123608   3.309920   2.527416
    16  H    3.989268   3.522752   4.912739   4.253095   2.511895
                    6          7          8          9         10
     6  H    0.000000
     7  H    1.833674   0.000000
     8  C    3.948804   2.676733   0.000000
     9  H    3.723812   2.089418   1.084616   0.000000
    10  H    5.027461   3.723833   1.088045   1.833688   0.000000
    11  C    3.805684   2.946600   2.270393   2.405577   2.741800
    12  H    4.478451   3.267576   2.512712   2.345910   2.758526
    13  H    4.454947   3.805596   2.527878   3.050145   2.717788
    14  C    2.740761   2.405315   3.021371   2.946932   3.806378
    15  H    2.717159   3.050228   3.673689   3.805882   4.455400
    16  H    2.757232   2.345780   3.662651   3.268265   4.479430
                   11         12         13         14         15
    11  C    0.000000
    12  H    1.087071   0.000000
    13  H    1.084975   1.837969   0.000000
    14  C    1.386635   2.148721   2.148246   0.000000
    15  H    2.148205   3.085438   2.479165   1.084979   0.000000
    16  H    2.148708   2.477396   3.085444   1.087078   1.837936
                   16
    16  H    0.000000
 Stoichiometry    C6H10
 Framework group  C1[X(C6H10)]
 Deg. of freedom    42
 Full point group                 C1      NOp   1
 RotChk:  IX=0 Diff= 4.42D-03
 Largest Abelian subgroup         C1      NOp   1
 Largest concise Abelian subgroup C1      NOp   1
                         Standard orientation:                         
 ---------------------------------------------------------------------
 Center     Atomic      Atomic             Coordinates (Angstroms)
 Number     Number       Type             X           Y           Z
 ---------------------------------------------------------------------
      1          6           0       -1.317011   -0.705841   -0.293825
      2          6           0       -1.315744    0.707926   -0.293718
      3          1           0       -1.861177   -1.217922   -1.085775
      4          1           0       -1.858944    1.221107   -1.085618
      5          6           0       -0.445635    1.433216    0.498251
      6          1           0       -0.379613    2.513856    0.390073
      7          1           0       -0.108270    1.044513    1.452975
      8          6           0       -0.448343   -1.432872    0.498086
      9          1           0       -0.110039   -1.044905    1.452772
     10          1           0       -0.384224   -2.513603    0.389680
     11          6           0        1.570508   -0.694387   -0.232369
     12          1           0        2.055841   -1.240031    0.572894
     13          1           0        1.448476   -1.240643   -1.161821
     14          6           0        1.571292    0.692248   -0.232409
     15          1           0        1.450050    1.238521   -1.161961
     16          1           0        2.057506    1.237365    0.572687
 ---------------------------------------------------------------------
 Rotational constants (GHZ):           4.3370120           3.4796579           2.2704387
 Leave Link  202 at Thu Mar 12 11:41:23 2020, MaxMem= 12884901888 cpu:               0.8 elap:               0.1
 (Enter /project/qslin/software/g16/l301.exe)
 Standard basis: 6-31+G(2df,p) (6D, 7F)
 Ernie: Thresh=  0.10000D-02 Tol=  0.10000D-05 Strict=F.
 There are   260 symmetry adapted cartesian basis functions of A   symmetry.
 There are   242 symmetry adapted basis functions of A   symmetry.
   242 basis functions,   358 primitive gaussians,   260 cartesian basis functions
    23 alpha electrons       23 beta electrons
       nuclear repulsion energy       224.2451816295 Hartrees.
 IExCor= 3226 DFT=T Ex+Corr=BMK ExCW=0 ScaHFX=  0.420000
 ScaDFX=  1.000000  1.000000  1.000000  1.000000 ScalE2=  1.000000  1.000000
 IRadAn=      5 IRanWt=     -1 IRanGd=            0 ICorTp=0 IEmpDi=  4
 NAtoms=   16 NActive=   16 NUniq=   16 SFac= 1.00D+00 NAtFMM=   60 NAOKFM=F Big=F
 Integral buffers will be    131072 words long.
 Raffenetti 2 integral format.
 Two-electron integral symmetry is turned on.
 Leave Link  301 at Thu Mar 12 11:41:23 2020, MaxMem= 12884901888 cpu:               1.0 elap:               0.1
 (Enter /project/qslin/software/g16/l302.exe)
 NPDir=0 NMtPBC=     1 NCelOv=     1 NCel=       1 NClECP=     1 NCelD=      1
         NCelK=      1 NCelE2=     1 NClLst=     1 CellRange=     0.0.
 One-electron integrals computed using PRISM.
 One-electron integral symmetry used in STVInt
 NBasis=   242 RedAO= T EigKep=  2.59D-05  NBF=   242
 NBsUse=   242 1.00D-06 EigRej= -1.00D+00 NBFU=   242
 Precomputing XC quadrature grid using
 IXCGrd= 4 IRadAn=           5 IRanWt=          -1 IRanGd=           0 AccXCQ= 0.00D+00.
 Generated NRdTot=       0 NPtTot=           0 NUsed=           0 NTot=          32
 NSgBfM=   260   260   260   260   260 MxSgAt=    16 MxSgA2=    16.
 Leave Link  302 at Thu Mar 12 11:41:24 2020, MaxMem= 12884901888 cpu:               6.9 elap:               0.5
 (Enter /project/qslin/software/g16/l303.exe)
 DipDrv:  MaxL=1.
 Leave Link  303 at Thu Mar 12 11:41:24 2020, MaxMem= 12884901888 cpu:               0.7 elap:               0.1
 (Enter /project/qslin/software/g16/l401.exe)
 Initial guess from the checkpoint file:  "DA-TS.chk"
 B after Tr=    -0.000000    0.000000    0.000000
         Rot=    0.999999   -0.000029   -0.001444    0.000257 Ang=  -0.17 deg.
 Guess basis will be translated and rotated to current coordinates.
 JPrj=2 DoOrth=T DoCkMO=T.
 Leave Link  401 at Thu Mar 12 11:41:24 2020, MaxMem= 12884901888 cpu:               1.6 elap:               0.1
 (Enter /project/qslin/software/g16/l502.exe)
 Integral symmetry usage will be decided dynamically.
 Closed shell SCF:
 Using DIIS extrapolation, IDIIS=  1040.
 NGot= 12884901888 LenX= 12884759954 LenY= 12884691913
 Requested convergence on RMS density matrix=1.00D-08 within 128 cycles.
 Requested convergence on MAX density matrix=1.00D-06.
 Requested convergence on             energy=1.00D-06.
 No special actions if energy rises.
 Fock matrices will be formed incrementally for  20 cycles.

 Cycle   1  Pass 1  IDiag  1:
 FoFJK:  IHMeth= 1 ICntrl=       0 DoSepK=F KAlg= 0 I1Cent=           0 FoldK=F
 IRaf= 990000000 NMat=       1 IRICut=       1 DoRegI=T DoRafI=F ISym2E= 0 IDoP0=0 IntGTp=1.
 FoFCou: FMM=F IPFlag=           0 FMFlag=      100000 FMFlg1=           0
         NFxFlg=           0 DoJE=F BraDBF=F KetDBF=F FulRan=T
         wScrn=  0.000000 ICntrl=         0 IOpCl=  0 I1Cent=           0 NGrid=           0
         NMat0=    1 NMatS0=      1 NMatT0=    0 NMatD0=    1 NMtDS0=    0 NMtDT0=    0
 Symmetry not used in FoFCou.
 E= -234.379671132935    
 DIIS: error= 7.47D-04 at cycle   1 NSaved=   1.
 NSaved= 1 IEnMin= 1 EnMin= -234.379671132935     IErMin= 1 ErrMin= 7.47D-04
 ErrMax= 7.47D-04  0.00D+00 EMaxC= 1.00D-01 BMatC= 1.89D-04 BMatP= 1.89D-04
 IDIUse=3 WtCom= 9.93D-01 WtEn= 7.47D-03
 Coeff-Com:  0.100D+01
 Coeff-En:   0.100D+01
 Coeff:      0.100D+01
 Gap=     0.647 Goal=   None    Shift=    0.000
 RMSDP=2.19D-04 MaxDP=8.96D-03              OVMax= 6.67D-03

 Cycle   2  Pass 1  IDiag  1:
 RMSU=  2.07D-04    CP:  9.95D-01
 E= -234.379890943516     Delta-E=       -0.000219810581 Rises=F Damp=F
 DIIS: error= 3.35D-04 at cycle   2 NSaved=   2.
 NSaved= 2 IEnMin= 2 EnMin= -234.379890943516     IErMin= 2 ErrMin= 3.35D-04
 ErrMax= 3.35D-04  0.00D+00 EMaxC= 1.00D-01 BMatC= 2.78D-05 BMatP= 1.89D-04
 IDIUse=3 WtCom= 9.97D-01 WtEn= 3.35D-03
 Coeff-Com:  0.189D+00 0.811D+00
 Coeff-En:   0.000D+00 0.100D+01
 Coeff:      0.188D+00 0.812D+00
 Gap=     0.259 Goal=   None    Shift=    0.000
 RMSDP=5.31D-05 MaxDP=1.39D-03 DE=-2.20D-04 OVMax= 2.12D-03

 Cycle   3  Pass 1  IDiag  1:
 RMSU=  5.08D-05    CP:  9.95D-01  1.07D+00
 E= -234.379914611013     Delta-E=       -0.000023667497 Rises=F Damp=F
 DIIS: error= 1.66D-04 at cycle   3 NSaved=   3.
 NSaved= 3 IEnMin= 3 EnMin= -234.379914611013     IErMin= 3 ErrMin= 1.66D-04
 ErrMax= 1.66D-04  0.00D+00 EMaxC= 1.00D-01 BMatC= 7.90D-06 BMatP= 2.78D-05
 IDIUse=3 WtCom= 9.98D-01 WtEn= 1.66D-03
 Coeff-Com: -0.145D-01 0.330D+00 0.684D+00
 Coeff-En:   0.000D+00 0.738D-01 0.926D+00
 Coeff:     -0.145D-01 0.330D+00 0.685D+00
 Gap=     0.259 Goal=   None    Shift=    0.000
 RMSDP=2.89D-05 MaxDP=7.29D-04 DE=-2.37D-05 OVMax= 1.45D-03

 Cycle   4  Pass 1  IDiag  1:
 RMSU=  1.94D-05    CP:  9.95D-01  1.06D+00  5.88D-01
 E= -234.379924590091     Delta-E=       -0.000009979078 Rises=F Damp=F
 DIIS: error= 4.26D-05 at cycle   4 NSaved=   4.
 NSaved= 4 IEnMin= 4 EnMin= -234.379924590091     IErMin= 4 ErrMin= 4.26D-05
 ErrMax= 4.26D-05  0.00D+00 EMaxC= 1.00D-01 BMatC= 3.03D-07 BMatP= 7.90D-06
 IDIUse=1 WtCom= 1.00D+00 WtEn= 0.00D+00
 Coeff-Com: -0.124D-01 0.592D-02 0.151D+00 0.855D+00
 Coeff:     -0.124D-01 0.592D-02 0.151D+00 0.855D+00
 Gap=     0.259 Goal=   None    Shift=    0.000
 RMSDP=7.63D-06 MaxDP=1.79D-04 DE=-9.98D-06 OVMax= 6.78D-04

 Cycle   5  Pass 1  IDiag  1:
 RMSU=  6.02D-06    CP:  9.95D-01  1.06D+00  6.14D-01  1.23D+00
 E= -234.379925227969     Delta-E=       -0.000000637878 Rises=F Damp=F
 DIIS: error= 1.67D-05 at cycle   5 NSaved=   5.
 NSaved= 5 IEnMin= 5 EnMin= -234.379925227969     IErMin= 5 ErrMin= 1.67D-05
 ErrMax= 1.67D-05  0.00D+00 EMaxC= 1.00D-01 BMatC= 6.82D-08 BMatP= 3.03D-07
 IDIUse=1 WtCom= 1.00D+00 WtEn= 0.00D+00
 Coeff-Com: -0.347D-02-0.311D-01 0.664D-03 0.347D+00 0.686D+00
 Coeff:     -0.347D-02-0.311D-01 0.664D-03 0.347D+00 0.686D+00
 Gap=     0.259 Goal=   None    Shift=    0.000
 RMSDP=2.81D-06 MaxDP=8.45D-05 DE=-6.38D-07 OVMax= 3.74D-04

 Cycle   6  Pass 1  IDiag  1:
 RMSU=  2.11D-06    CP:  9.95D-01  1.06D+00  6.20D-01  1.32D+00  8.92D-01
 E= -234.379925360622     Delta-E=       -0.000000132653 Rises=F Damp=F
 DIIS: error= 1.33D-05 at cycle   6 NSaved=   6.
 NSaved= 6 IEnMin= 6 EnMin= -234.379925360622     IErMin= 6 ErrMin= 1.33D-05
 ErrMax= 1.33D-05  0.00D+00 EMaxC= 1.00D-01 BMatC= 2.07D-08 BMatP= 6.82D-08
 IDIUse=1 WtCom= 1.00D+00 WtEn= 0.00D+00
 Coeff-Com:  0.916D-03-0.177D-01-0.351D-01-0.374D-01 0.366D+00 0.724D+00
 Coeff:      0.916D-03-0.177D-01-0.351D-01-0.374D-01 0.366D+00 0.724D+00
 Gap=     0.259 Goal=   None    Shift=    0.000
 RMSDP=1.82D-06 MaxDP=4.54D-05 DE=-1.33D-07 OVMax= 1.75D-04

 Cycle   7  Pass 1  IDiag  1:
 RMSU=  8.48D-07    CP:  9.95D-01  1.06D+00  6.18D-01  1.39D+00  1.03D+00
                    CP:  9.56D-01
 E= -234.379925402303     Delta-E=       -0.000000041680 Rises=F Damp=F
 DIIS: error= 2.83D-06 at cycle   7 NSaved=   7.
 NSaved= 7 IEnMin= 7 EnMin= -234.379925402303     IErMin= 7 ErrMin= 2.83D-06
 ErrMax= 2.83D-06  0.00D+00 EMaxC= 1.00D-01 BMatC= 9.16D-10 BMatP= 2.07D-08
 IDIUse=1 WtCom= 1.00D+00 WtEn= 0.00D+00
 Coeff-Com:  0.724D-03 0.854D-03-0.858D-02-0.654D-01-0.186D-02 0.179D+00
 Coeff-Com:  0.895D+00
 Coeff:      0.724D-03 0.854D-03-0.858D-02-0.654D-01-0.186D-02 0.179D+00
 Coeff:      0.895D+00
 Gap=     0.259 Goal=   None    Shift=    0.000
 RMSDP=6.47D-07 MaxDP=1.64D-05 DE=-4.17D-08 OVMax= 5.74D-05

 Cycle   8  Pass 1  IDiag  1:
 RMSU=  2.54D-07    CP:  9.95D-01  1.06D+00  6.19D-01  1.40D+00  1.08D+00
                    CP:  1.08D+00  1.13D+00
 E= -234.379925405114     Delta-E=       -0.000000002811 Rises=F Damp=F
 DIIS: error= 5.65D-07 at cycle   8 NSaved=   8.
 NSaved= 8 IEnMin= 8 EnMin= -234.379925405114     IErMin= 8 ErrMin= 5.65D-07
 ErrMax= 5.65D-07  0.00D+00 EMaxC= 1.00D-01 BMatC= 1.46D-10 BMatP= 9.16D-10
[...]

 Cycle  10  Pass 1  IDiag  1:
 RMSU=  4.18D-09    CP:  9.38D-01  1.08D+00  1.15D+00  1.14D+00  1.38D+00
                    CP:  1.65D+00  1.82D+00  2.56D+00  1.78D+00
 E= -232.978754673743     Delta-E=       -0.000000000029 Rises=F Damp=F
 DIIS: error= 7.04D-08 at cycle  10 NSaved=  10.
 NSaved=10 IEnMin=10 EnMin= -232.978754673743     IErMin=10 ErrMin= 7.04D-08
 ErrMax= 7.04D-08  0.00D+00 EMaxC= 1.00D-01 BMatC= 2.32D-13 BMatP= 3.26D-12
 IDIUse=1 WtCom= 1.00D+00 WtEn= 0.00D+00
 Coeff-Com: -0.276D-05 0.544D-04-0.416D-03-0.126D-02-0.155D-02 0.158D-01
 Coeff-Com:  0.460D-01-0.106D+00-0.172D+00 0.122D+01
 Coeff:     -0.276D-05 0.544D-04-0.416D-03-0.126D-02-0.155D-02 0.158D-01
 Coeff:      0.460D-01-0.106D+00-0.172D+00 0.122D+01
 Gap=     0.352 Goal=   None    Shift=    0.000
 RMSDP=3.67D-09 MaxDP=1.17D-07 DE=-2.86D-11 OVMax= 1.09D-06

 SCF Done:  E(RHF) =  -232.978754674     A.U. after   10 cycles
            NFock= 10  Conv=0.37D-08     -V/T= 2.0017
 KE= 2.325943322914D+02 PE=-9.900449460028D+02 EE= 3.002798616288D+02
 Leave Link  502 at Thu Mar 12 11:49:53 2020, MaxMem= 12884901888 cpu:            2323.1 elap:             145.8
 (Enter /project/qslin/software/g16/l601.exe)
 Copying SCF densities to generalized density rwf, IOpCl= 0 IROHF=0.

 **********************************************************************

            Population analysis using the SCF density.

 **********************************************************************

 Orbital symmetries:
       Occupied  (A) (A) (A) (A) (A) (A) (A) (A) (A) (A) (A) (A)
                 (A) (A) (A) (A) (A) (A) (A) (A) (A) (A) (A)
       Virtual   (A) (A) (A) (A) (A) (A) (A) (A) (A) (A) (A) (A)
                 (A) (A) (A) (A) (A) (A) (A) (A) (A) (A) (A) (A)
                 (A) (A) (A) (A) (A) (A) (A) (A) (A) (A) (A) (A)
                 (A) (A) (A) (A) (A) (A) (A) (A) (A) (A) (A) (A)
                 (A) (A) (A) (A) (A) (A) (A) (A) (A) (A) (A) (A)
                 (A) (A) (A) (A) (A) (A) (A) (A) (A) (A) (A) (A)
                 (A) (A) (A) (A) (A) (A) (A) (A) (A) (A) (A) (A)
                 (A) (A) (A) (A) (A) (A) (A) (A) (A) (A) (A) (A)
                 (A) (A) (A) (A) (A) (A) (A) (A) (A) (A) (A) (A)
                 (A) (A) (A) (A) (A) (A) (A) (A) (A) (A) (A) (A)
                 (A) (A) (A) (A) (A) (A) (A) (A) (A) (A) (A) (A)
                 (A) (A) (A) (A) (A) (A) (A) (A) (A) (A) (A) (A)
                 (A) (A) (A) (A) (A) (A) (A) (A) (A) (A) (A) (A)
                 (A) (A) (A) (A) (A) (A) (A) (A) (A) (A) (A) (A)
                 (A) (A) (A) (A) (A) (A) (A) (A) (A) (A) (A) (A)
                 (A) (A) (A) (A) (A) (A) (A) (A) (A) (A) (A) (A)
                 (A) (A) (A) (A) (A) (A) (A) (A) (A) (A) (A) (A)
                 (A) (A) (A) (A) (A) (A) (A) (A) (A) (A) (A) (A)
                 (A) (A) (A) (A) (A) (A) (A) (A) (A) (A) (A) (A)
                 (A) (A) (A) (A) (A) (A) (A) (A) (A) (A) (A) (A)
                 (A) (A) (A) (A) (A) (A) (A) (A) (A) (A) (A) (A)
                 (A) (A) (A) (A) (A) (A) (A) (A) (A) (A) (A) (A)
                 (A) (A) (A) (A) (A) (A) (A) (A) (A) (A) (A) (A)
                 (A) (A) (A) (A) (A) (A) (A) (A) (A) (A) (A) (A)
                 (A) (A) (A) (A) (A) (A) (A) (A) (A) (A) (A) (A)
                 (A) (A) (A) (A) (A) (A) (A) (A) (A) (A) (A) (A)
                 (A) (A) (A) (A) (A) (A) (A) (A) (A) (A) (A) (A)
                 (A) (A) (A) (A) (A) (A) (A) (A) (A) (A) (A) (A)
                 (A) (A) (A) (A) (A) (A) (A) (A) (A) (A) (A) (A)
                 (A) (A) (A) (A) (A) (A) (A) (A) (A) (A) (A) (A)
                 (A) (A) (A) (A) (A) (A) (A) (A) (A) (A) (A) (A)
                 (A) (A) (A) (A) (A) (A) (A) (A) (A) (A) (A) (A)
                 (A) (A) (A) (A) (A) (A) (A) (A) (A) (A) (A) (A)
                 (A) (A) (A) (A) (A) (A) (A) (A) (A) (A) (A) (A)
                 (A) (A) (A) (A) (A) (A) (A) (A) (A) (A) (A) (A)
                 (A) (A) (A) (A) (A) (A) (A) (A) (A) (A) (A) (A)
                 (A) (A) (A) (A) (A) (A) (A) (A) (A) (A) (A) (A)
                 (A) (A) (A) (A) (A) (A) (A) (A) (A) (A) (A) (A)
                 (A) (A) (A) (A) (A) (A) (A) (A) (A) (A) (A) (A)
                 (A) (A) (A) (A) (A) (A) (A) (A) (A) (A) (A) (A)
                 (A)
 The electronic state is 1-A.
 Alpha  occ. eigenvalues --  -11.23675 -11.23672 -11.22840 -11.22711 -11.22274
 Alpha  occ. eigenvalues --  -11.22166  -1.09161  -1.01220  -0.97666  -0.84852
 Alpha  occ. eigenvalues --   -0.79479  -0.71554  -0.66889  -0.63645  -0.59491
 Alpha  occ. eigenvalues --   -0.56896  -0.56702  -0.52008  -0.50512  -0.48927
 Alpha  occ. eigenvalues --   -0.47198  -0.30591  -0.30417
 Alpha virt. eigenvalues --    0.04827   0.04974   0.05557   0.06076   0.06727
 Alpha virt. eigenvalues --    0.07258   0.08223   0.08746   0.09828   0.10746
 Alpha virt. eigenvalues --    0.11283   0.11558   0.12289   0.12320   0.12934
 Alpha virt. eigenvalues --    0.13966   0.14132   0.15435   0.15889   0.15924
 Alpha virt. eigenvalues --    0.16772   0.18652   0.19583   0.20439   0.20737
 Alpha virt. eigenvalues --    0.21804   0.24910   0.25249   0.27219   0.28384
 Alpha virt. eigenvalues --    0.30380   0.30441   0.32133   0.32146   0.32944
 Alpha virt. eigenvalues --    0.34791   0.35255   0.36272   0.36923   0.38581
 Alpha virt. eigenvalues --    0.38857   0.40007   0.41146   0.41738   0.42935
 Alpha virt. eigenvalues --    0.44704   0.45484   0.46558   0.48179   0.51882
 Alpha virt. eigenvalues --    0.53044   0.54002   0.54069   0.55642   0.57208
 Alpha virt. eigenvalues --    0.57897   0.59693   0.60267   0.61205   0.61334
 Alpha virt. eigenvalues --    0.64557   0.64668   0.65142   0.65319   0.67205
 Alpha virt. eigenvalues --    0.67857   0.68544   0.69520   0.70034   0.72142
 Alpha virt. eigenvalues --    0.72915   0.75242   0.75266   0.78470   0.79958
 Alpha virt. eigenvalues --    0.81211   0.81377   0.85696   0.87714   0.88180
 Alpha virt. eigenvalues --    0.90867   0.90986   0.92697   0.95292   0.95891
 Alpha virt. eigenvalues --    0.96627   0.98355   0.99678   1.00859   1.03688
 Alpha virt. eigenvalues --    1.05825   1.07947   1.08541   1.10007   1.10591
 Alpha virt. eigenvalues --    1.11144   1.12074   1.13650   1.15248   1.17635
 Alpha virt. eigenvalues --    1.18320   1.20343   1.23317   1.23368   1.26064
 Alpha virt. eigenvalues --    1.28788   1.29766   1.30791   1.31033   1.31907
 Alpha virt. eigenvalues --    1.36758   1.37807   1.39222   1.42602   1.45112
 Alpha virt. eigenvalues --    1.46544   1.47606   1.50499   1.51265   1.51562
 Alpha virt. eigenvalues --    1.55201   1.56311   1.57080   1.58250   1.60299
 Alpha virt. eigenvalues --    1.60874   1.64034   1.66576   1.66987   1.67439
 Alpha virt. eigenvalues --    1.69566   1.70900   1.71517   1.73676   1.74182
 Alpha virt. eigenvalues --    1.76028   1.77135   1.79118   1.79771   1.80355
 Alpha virt. eigenvalues --    1.81889   1.82562   1.85658   1.86992   1.89027
 Alpha virt. eigenvalues --    1.89937   1.91261   1.91718   1.93701   1.96117
 Alpha virt. eigenvalues --    1.97009   1.99670   2.00317   2.02000   2.03719
 Alpha virt. eigenvalues --    2.06379   2.07245   2.08660   2.09414   2.09537
 Alpha virt. eigenvalues --    2.11145   2.11926   2.14116   2.15315   2.15379
 Alpha virt. eigenvalues --    2.15396   2.16296   2.19554   2.19599   2.20628
 Alpha virt. eigenvalues --    2.22203   2.22361   2.22998   2.26761   2.28422
 Alpha virt. eigenvalues --    2.29563   2.33193   2.33236   2.35419   2.37110
 Alpha virt. eigenvalues --    2.37967   2.39042   2.42009   2.42704   2.43349
 Alpha virt. eigenvalues --    2.47052   2.47632   2.48303   2.53405   2.54505
 Alpha virt. eigenvalues --    2.55086   2.58072   2.59219   2.62018   2.62995
 Alpha virt. eigenvalues --    2.64783   2.68269   2.69955   2.70510   2.73433
 Alpha virt. eigenvalues --    2.74497   2.76064   2.81102   2.83611   2.84561
 Alpha virt. eigenvalues --    2.90386   2.90746   2.91276   2.92948   2.93340
 Alpha virt. eigenvalues --    2.99732   3.03514   3.04545   3.06302   3.09375
 Alpha virt. eigenvalues --    3.10265   3.10727   3.13462   3.18079   3.23860
 Alpha virt. eigenvalues --    3.26056   3.28761   3.39146   3.40027   3.40837
 Alpha virt. eigenvalues --    3.44152   3.44574   3.46542   3.53983   3.55254
 Alpha virt. eigenvalues --    3.55835   3.59704   3.66066   3.66762   3.68834
 Alpha virt. eigenvalues --    3.71040   3.73044   3.82306   3.83476   3.84114
 Alpha virt. eigenvalues --    3.87035   3.88589   3.92536   3.92908   3.92950
 Alpha virt. eigenvalues --    3.93720   4.02949   4.02987   4.07456   4.10550
 Alpha virt. eigenvalues --    4.10864   4.14720   4.16122   4.16690   4.18874
 Alpha virt. eigenvalues --    4.20071   4.22967   4.23861   4.26032   4.26978
 Alpha virt. eigenvalues --    4.28395   4.29410   4.32761   4.34202   4.36550
 Alpha virt. eigenvalues --    4.39800   4.43134   4.43473   4.44912   4.46104
 Alpha virt. eigenvalues --    4.48517   4.49611   4.50541   4.55309   4.55559
 Alpha virt. eigenvalues --    4.57126   4.59663   4.61102   4.63539   4.64475
 Alpha virt. eigenvalues --    4.68993   4.73441   4.75219   4.78015   4.80076
 Alpha virt. eigenvalues --    4.83889   4.86039   4.87114   4.88062   4.92630
 Alpha virt. eigenvalues --    4.93636   4.95391   4.95899   4.97181   4.97900
 Alpha virt. eigenvalues --    5.03098   5.04155   5.05122   5.05847   5.09320
 Alpha virt. eigenvalues --    5.10067   5.10417   5.16240   5.17472   5.19415
 Alpha virt. eigenvalues --    5.19783   5.22251   5.24270   5.24602   5.26553
 Alpha virt. eigenvalues --    5.30119   5.31522   5.32039   5.34508   5.35940
 Alpha virt. eigenvalues --    5.38980   5.38999   5.41847   5.44444   5.45036
 Alpha virt. eigenvalues --    5.46039   5.48215   5.49487   5.50816   5.54553
 Alpha virt. eigenvalues --    5.54722   5.55200   5.59132   5.60676   5.63107
 Alpha virt. eigenvalues --    5.64856   5.71737   5.73335   5.74862   5.78143
 Alpha virt. eigenvalues --    5.85131   5.87112   5.88114   5.92263   5.94962
 Alpha virt. eigenvalues --    5.96124   5.98940   5.99838   6.03398   6.04915
 Alpha virt. eigenvalues --    6.06346   6.08470   6.09655   6.14297   6.16405
 Alpha virt. eigenvalues --    6.18039   6.21550   6.21615   6.22851   6.25223
 Alpha virt. eigenvalues --    6.27727   6.29910   6.30627   6.32445   6.34659
 Alpha virt. eigenvalues --    6.35631   6.36492   6.38821   6.41435   6.43071
 Alpha virt. eigenvalues --    6.44794   6.46451   6.46770   6.49431   6.51094
 Alpha virt. eigenvalues --    6.53251   6.53930   6.53951   6.55335   6.57733
 Alpha virt. eigenvalues --    6.61551   6.62089   6.64488   6.69635   6.69812
 Alpha virt. eigenvalues --    6.71261   6.73209   6.73408   6.80908   6.81174
 Alpha virt. eigenvalues --    6.83261   6.85318   6.87217   6.88192   6.89737
 Alpha virt. eigenvalues --    6.92231   6.93212   7.00184   7.00750   7.02924
 Alpha virt. eigenvalues --    7.05997   7.15083   7.16145   7.16651   7.18025
 Alpha virt. eigenvalues --    7.23079   7.23947   7.24045   7.26066   7.26497
 Alpha virt. eigenvalues --    7.28032   7.29970   7.30889   7.34046   7.35377
 Alpha virt. eigenvalues --    7.36624   7.40152   7.40432   7.44347   7.44989
 Alpha virt. eigenvalues --    7.46057   7.48427   7.49000   7.50560   7.51068
 Alpha virt. eigenvalues --    7.51869   7.55064   7.59055   7.64211   7.67642
 Alpha virt. eigenvalues --    7.68103   7.71394   7.75507   7.75806   7.76496
 Alpha virt. eigenvalues --    7.77582   7.79598   7.82792   7.85587   7.86216
 Alpha virt. eigenvalues --    7.95816   7.98558   8.03630   8.06643   8.07255
 Alpha virt. eigenvalues --    8.18137   8.23105   8.26038   8.37092   8.45353
 Alpha virt. eigenvalues --    8.52513   8.56642   8.62514   8.64803   8.68737
 Alpha virt. eigenvalues --    8.77266   8.79924   8.81691   8.88237   8.88515
 Alpha virt. eigenvalues --    8.93694   8.96978   9.04751   9.23237   9.33095
 Alpha virt. eigenvalues --    9.58642   9.67691   9.79595   9.83276  10.07340
 Alpha virt. eigenvalues --   10.29334  10.31119  10.40018  10.41597  10.46596
 Alpha virt. eigenvalues --   10.52548  10.56323  10.58260  10.64931  10.77497
 Alpha virt. eigenvalues --   23.39747  23.47022  23.50748  24.24953  24.38996
 Alpha virt. eigenvalues --   24.55273
          Condensed to atoms (all electrons):
               1          2          3          4          5          6
     1  C    4.871005   0.485327   0.436429  -0.047001  -0.093379   0.008482
     2  C    0.485327   4.871363  -0.047001   0.436440   0.635086  -0.027704
     3  H    0.436429  -0.047001   0.535685  -0.003208   0.004240  -0.000303
     4  H   -0.047001   0.436440  -0.003208   0.535679  -0.033670  -0.006347
     5  C   -0.093379   0.635086   0.004240  -0.033670   4.826006   0.411827
     6  H    0.008482  -0.027704  -0.000303  -0.006347   0.411827   0.526343
     7  H    0.000340  -0.025851   0.000215   0.003985   0.437983  -0.032635
     8  C    0.635107  -0.093383  -0.033666   0.004239  -0.049028   0.002925
     9  H   -0.025886   0.000355   0.003984   0.000215  -0.004107  -0.000159
    10  H   -0.027715   0.008481  -0.006346  -0.000303   0.002923   0.000001
    11  C   -0.028861  -0.066066   0.002650  -0.001141  -0.034981   0.002223
    12  H    0.000533   0.003698  -0.000209   0.000019   0.003682  -0.000160
    13  H   -0.014916   0.006221  -0.000159   0.000087   0.002838  -0.000088
    14  C   -0.065883  -0.028998  -0.001138   0.002650   0.112929  -0.007407
    15  H    0.006232  -0.014954   0.000087  -0.000159  -0.018078  -0.001052
    16  H    0.003700   0.000528   0.000019  -0.000210  -0.022164   0.001749
               7          8          9         10         11         12
     1  C    0.000340   0.635107  -0.025886  -0.027715  -0.028861   0.000533
     2  C   -0.025851  -0.093383   0.000355   0.008481  -0.066066   0.003698
     3  H    0.000215  -0.033666   0.003984  -0.006346   0.002650  -0.000209
     4  H    0.003985   0.004239   0.000215  -0.000303  -0.001141   0.000019
     5  C    0.437983  -0.049028  -0.004107   0.002923  -0.034981   0.003682
     6  H   -0.032635   0.002925  -0.000159   0.000001   0.002223  -0.000160
     7  H    0.574017  -0.004096   0.007233  -0.000159  -0.017444   0.000885
     8  C   -0.004096   4.826135   0.438000   0.411846   0.112801  -0.022105
     9  H    0.007233   0.438000   0.573933  -0.032635  -0.029885  -0.005870
    10  H   -0.000159   0.411846  -0.032635   0.526316  -0.007387   0.001747
    11  C   -0.017444   0.112801  -0.029885  -0.007387   4.828029   0.422307
    12  H    0.000885  -0.022105  -0.005870   0.001747   0.422307   0.543611
    13  H   -0.000010  -0.018050   0.001744  -0.001050   0.422810  -0.028912
    14  C   -0.029917  -0.034914  -0.017373   0.002210   0.644668  -0.024892
    15  H    0.001749   0.002835  -0.000010  -0.000087  -0.018380   0.003636
    16  H   -0.005887   0.003685   0.000882  -0.000160  -0.024855  -0.007724
              13         14         15         16
     1  C   -0.014916  -0.065883   0.006232   0.003700
     2  C    0.006221  -0.028998  -0.014954   0.000528
     3  H   -0.000159  -0.001138   0.000087   0.000019
     4  H    0.000087   0.002650  -0.000159  -0.000210
     5  C    0.002838   0.112929  -0.018078  -0.022164
     6  H   -0.000088  -0.007407  -0.001052   0.001749
     7  H   -0.000010  -0.029917   0.001749  -0.005887
     8  C   -0.018050  -0.034914   0.002835   0.003685
     9  H    0.001744  -0.017373  -0.000010   0.000882
    10  H   -0.001050   0.002210  -0.000087  -0.000160
    11  C    0.422810   0.644668  -0.018380  -0.024855
    12  H   -0.028912  -0.024892   0.003636  -0.007724
    13  H    0.549953  -0.018385  -0.007480   0.003635
    14  C   -0.018385   4.827656   0.422799   0.422290
    15  H   -0.007480   0.422799   0.550026  -0.028909
    16  H    0.003635   0.422290  -0.028909   0.543648
 Mulliken charges:
               1
     1  C   -0.143513
     2  C   -0.143542
     3  H    0.108722
     4  H    0.108725
     5  C   -0.182107
     6  H    0.122304
     7  H    0.089593
     8  C   -0.182331
     9  H    0.089580
    10  H    0.122317
    11  C   -0.206488
    12  H    0.109755
    13  H    0.101761
    14  C   -0.206293
    15  H    0.101746
    16  H    0.109773
 Sum of Mulliken charges =  -0.00000
 Mulliken charges with hydrogens summed into heavy atoms:
               1
     1  C   -0.034791
     2  C   -0.034816
     5  C    0.029790
     8  C    0.029565
    11  C    0.005027
    14  C    0.005225
 Electronic spatial extent (au):  <R**2>=            616.4761
 Charge=             -0.0000 electrons
 Dipole moment (field-independent basis, Debye):
    X=              0.5110    Y=              0.0002    Z=              0.0302  Tot=              0.5119
 Quadrupole moment (field-independent basis, Debye-Ang):
   XX=            -44.1472   YY=            -36.2705   ZZ=            -37.7700
   XY=              0.0110   XZ=              3.7539   YZ=             -0.0046
 Traceless Quadrupole moment (field-independent basis, Debye-Ang):
   XX=             -4.7513   YY=              3.1254   ZZ=              1.6260
   XY=              0.0110   XZ=              3.7539   YZ=             -0.0046
 Octapole moment (field-independent basis, Debye-Ang**2):
  XXX=             -2.3272  YYY=             -0.0078  ZZZ=              0.4494  XYY=              2.8122
  XXY=              0.0100  XXZ=             -2.2410  XZZ=              1.5297  YZZ=             -0.0013
  YYZ=             -1.7084  XYZ=              0.0008
 Hexadecapole moment (field-independent basis, Debye-Ang**3):
 XXXX=           -470.0528 YYYY=           -318.6790 ZZZZ=           -108.7944 XXXY=              0.0629
 XXXZ=             26.1341 YYYX=              0.0558 YYYZ=             -0.0224 ZZZX=              6.6102
 ZZZY=             -0.0097 XXYY=           -129.3933 XXZZ=            -88.0591 YYZZ=            -74.8698
 XXYZ=             -0.0110 YYXZ=              7.2412 ZZXY=              0.0025
 N-N= 2.241919974088D+02 E-N=-9.900449460864D+02  KE= 2.325943322914D+02
 No NMR shielding tensors so no spin-rotation constants.
 Leave Link  601 at Thu Mar 12 11:49:54 2020, MaxMem= 12884901888 cpu:               6.2 elap:               0.5
 (Enter /project/qslin/software/g16/l9999.exe)
 1\1\GINC-N0094\SP\RHF\GFHFB4\C6H10\QSLIN\12-Mar-2020\0\\#p Geom=AllChe
 ck Guess=Read HF/GFHFB4\\G4(MP2)-6X calculation\\0,1\C,0,1.3170302051,
 0.7067301761,-0.2980666635\C,0,1.3163637221,-0.7074359829,-0.298000383
 4\H,0,1.8585079911,1.2189949741,-1.0917776045\H,0,1.8573411112,-1.2202
 810264,-1.0916737687\C,0,0.4488499685,-1.4334412268,0.4966978794\H,0,0
 .3830391368,-2.5141276978,0.388356906\H,0,0.1140598895,-1.0451441765,1
 .4525172696\C,0,0.4504286569,1.4336841199,0.496677898\H,0,0.1149754385
 ,1.0457358261,1.4523991263\H,0,0.3854102611,2.514392164,0.388105509\C,
 0,-1.5713046713,0.69371651,-0.2278273536\H,0,-2.0539142507,1.239030876
 ,0.5793406024\H,0,-1.4523714633,1.2401932878,-1.1575924344\C,0,-1.5711
 908502,-0.693286925,-0.2280765241\H,0,-1.4524256676,-1.2393062853,-1.1
 581401249\H,0,-2.0542084776,-1.2388906134,0.5786576664\\Version=ES64L-
 G16RevA.03\State=1-A\HF=-232.9787547\RMSD=3.669e-09\Dipole=-0.2010258,
 -0.0002846,0.0124645\Quadrupole=-3.5490535,2.3236435,1.22541,0.0027547
 ,-2.776801,0.0007834\PG=C01 [X(C6H10)]\\@


 BETTER TO HUNT IN FIELDS, FOR HEALTH UNBOUGHT
 THAN FEE THE DOCTOR FOR A NAUSEOUS DRAUGHT.
 THE WISE, FOR CURE, ON EXERCISE DEPEND;
 GOD NEVER MADE HIS WORK FOR MAN TO MEND.
     -- JOHN DRYDEN (1631-1700)
 Job cpu time:       0 days  0 hours 39 minutes 16.3 seconds.
 Elapsed time:       0 days  0 hours  2 minutes 28.3 seconds.
 File lengths (MBytes):  RWF=    132 Int=      0 D2E=      0 Chk=     19 Scr=      1
 Normal termination of Gaussian 16 at Thu Mar 12 11:49:54 2020.
DA-TS.log                                
   Temperature (K)   373.15
   NImag     1
   E_ele    -234.27767276
   H(0K)    -234.14104468
    H(T)    -234.12949310
    U(T)    -234.13067480
    G(T)    -234.18115786


