 Entering Gaussian System, Link 0=g16
 Input=EtOH-TS.gjf
 Output=EtOH-TS.log
 Initial command:
 /home/qslin/g16/l1.exe "/mnt/d/G16W/Scratch/Gau-17.inp" -scrdir="/mnt/d/G16W/Scratch/"
 Default is to use a total of   4 processors:
                                4 via shared-memory
                                1 via Linda
 Entering Link 1 = /home/qslin/g16/l1.exe PID=        19.
  
 Copyright (c) 1988,1990,1992,1993,1995,1998,2003,2009,2016,
            Gaussian, Inc.  All Rights Reserved.
  
 This is part of the Gaussian(R) 16 program.  It is based on
 the Gaussian(R) 09 system (copyright 2009, Gaussian, Inc.),
 the Gaussian(R) 03 system (copyright 2003, Gaussian, Inc.),
 the Gaussian(R) 98 system (copyright 1998, Gaussian, Inc.),
 the Gaussian(R) 94 system (copyright 1995, Gaussian, Inc.),
 the Gaussian 92(TM) system (copyright 1992, Gaussian, Inc.),
 the Gaussian 90(TM) system (copyright 1990, Gaussian, Inc.),
 the Gaussian 88(TM) system (copyright 1988, Gaussian, Inc.),
 the Gaussian 86(TM) system (copyright 1986, Carnegie Mellon
 University), and the Gaussian 82(TM) system (copyright 1983,
 Carnegie Mellon University). Gaussian is a federally registered
 trademark of Gaussian, Inc.
  
 This software contains proprietary and confidential information,
 including trade secrets, belonging to Gaussian, Inc.
  
 This software is provided under written license and may be
 used, copied, transmitted, or stored only in accord with that
 written license.
  
 The following legend is applicable only to US Government
 contracts under FAR:
  
                    RESTRICTED RIGHTS LEGEND
  
 Use, reproduction and disclosure by the US Government is
 subject to restrictions as set forth in subparagraphs (a)
 and (c) of the Commercial Computer Software - Restricted
 Rights clause in FAR 52.227-19.
  
 Gaussian, Inc.
 340 Quinnipiac St., Bldg. 40, Wallingford CT 06492
  
  
 ---------------------------------------------------------------
 Warning -- This program may not be used in any manner that
 competes with the business of Gaussian, Inc. or will provide
 assistance to any competitor of Gaussian, Inc.  The licensee
 of this program is prohibited from giving any competitor of
 Gaussian, Inc. access to this program.  By using this program,
 the user acknowledges that Gaussian, Inc. is engaged in the
 business of creating and licensing software in the field of
 computational chemistry and represents and warrants to the
 licensee that it is not a competitor of Gaussian, Inc. and that
 it will not use this program in any manner prohibited above.
 ---------------------------------------------------------------
  

 Cite this work as:
 Gaussian 16, Revision A.03,
 M. J. Frisch, G. W. Trucks, H. B. Schlegel, G. E. Scuseria, 
 M. A. Robb, J. R. Cheeseman, G. Scalmani, V. Barone, 
 G. A. Petersson, H. Nakatsuji, X. Li, M. Caricato, A. V. Marenich, 
 J. Bloino, B. G. Janesko, R. Gomperts, B. Mennucci, H. P. Hratchian, 
 J. V. Ortiz, A. F. Izmaylov, J. L. Sonnenberg, D. Williams-Young, 
 F. Ding, F. Lipparini, F. Egidi, J. Goings, B. Peng, A. Petrone, 
 T. Henderson, D. Ranasinghe, V. G. Zakrzewski, J. Gao, N. Rega, 
 G. Zheng, W. Liang, M. Hada, M. Ehara, K. Toyota, R. Fukuda, 
 J. Hasegawa, M. Ishida, T. Nakajima, Y. Honda, O. Kitao, H. Nakai, 
 T. Vreven, K. Throssell, J. A. Montgomery, Jr., J. E. Peralta, 
 F. Ogliaro, M. J. Bearpark, J. J. Heyd, E. N. Brothers, K. N. Kudin, 
 V. N. Staroverov, T. A. Keith, R. Kobayashi, J. Normand, 
 K. Raghavachari, A. P. Rendell, J. C. Burant, S. S. Iyengar, 
 J. Tomasi, M. Cossi, J. M. Millam, M. Klene, C. Adamo, R. Cammi, 
 J. W. Ochterski, R. L. Martin, K. Morokuma, O. Farkas, 
 J. B. Foresman, and D. J. Fox, Gaussian, Inc., Wallingford CT, 2016.
 
 ******************************************
 Gaussian 16:  ES64L-G16RevA.03 25-Dec-2016
                 1-Jun-2020 
 ******************************************
 %mem=6GB
 %nprocshared=4
 Will use up to    4 processors via shared memory.
 %chk=EtOH-TS.chk
 -----------------------------------------------------
 #p opt=(calcfc,ts,noeigen) freq b3lyp/6-31g* em=gd3bj
 -----------------------------------------------------
 1/5=1,10=4,11=1,18=20,26=3,38=1/1,3;
 2/9=110,12=2,17=6,18=5,40=1/2;
 3/5=1,6=6,7=1,11=2,25=1,30=1,71=2,74=-5,124=41,140=1/1,2,3;
 4//1;
 5/5=2,38=5/2;
 8/6=4,10=90,11=11/1;
 11/6=1,8=1,9=11,15=111,16=1/1,2,10;
 10/6=1,13=1/2;
 6/7=2,8=2,9=2,10=2,28=1/1;
 7/10=1,18=20,25=1/1,2,3,16;
 1/5=1,10=4,11=1,18=20,26=3/3(2);
 2/9=110/2;
 99//99;
 2/9=110/2;
 3/5=1,6=6,7=1,11=2,25=1,30=1,71=1,74=-5,124=41/1,2,3;
 4/5=5,16=3,69=1/1;
 5/5=2,38=5/2;
 7//1,2,3,16;
 1/5=1,11=1,18=20,26=3/3(-5);
 2/9=110/2;
 6/7=2,8=2,9=2,10=2,19=2,28=1/1;
 99/9=1/99;
 Leave Link    1 at Mon Jun  1 23:53:08 2020, MaxMem=   805306368 cpu:               0.3 elap:               0.1
 (Enter /home/qslin/g16/l101.exe)
 ---------------------------------------
 optimize transition state and frequency
 ---------------------------------------
 Symbolic Z-matrix:
 Charge =  0 Multiplicity = 1
 C                    -2.16856  -1.74266  -0.08885 
 H                    -1.771    -2.72635  -0.22735 
 H                    -2.69662  -1.12975  -0.78913 
 H                    -3.44374  -2.01741   1.06866 
 C                    -1.47756  -0.92175   1.08558 
 H                    -0.78221  -1.4736    1.68294 
 H                    -1.68148   0.12853   1.10076 
 O                    -2.8816   -1.46778   1.90678 
 H                    -2.99849  -1.22935   2.79651 
 
 Add virtual bond connecting atoms O8         and H4         Dist= 2.17D+00.
 Add virtual bond connecting atoms H4         and C1         Dist= 3.30D+00.
 Add virtual bond connecting atoms O8         and C5         Dist= 3.24D+00.
 ITRead=  0  0  0  0  0  0  0  0  0
 MicOpt= -1 -1 -1 -1 -1 -1 -1 -1 -1
 NAtoms=      9 NQM=        9 NQMF=       0 NMMI=      0 NMMIF=      0
                NMic=       0 NMicF=      0.
                    Isotopes and Nuclear Properties:
 (Nuclear quadrupole moments (NQMom) in fm**2, nuclear magnetic moments (NMagM)
  in nuclear magnetons)

  Atom         1           2           3           4           5           6           7           8           9
 IAtWgt=          12           1           1           1          12           1           1          16           1
 AtmWgt=  12.0000000   1.0078250   1.0078250   1.0078250  12.0000000   1.0078250   1.0078250  15.9949146   1.0078250
 NucSpn=           0           1           1           1           0           1           1           0           1
 AtZEff=  -0.0000000  -0.0000000  -0.0000000  -0.0000000  -0.0000000  -0.0000000  -0.0000000  -0.0000000  -0.0000000
 NQMom=    0.0000000   0.0000000   0.0000000   0.0000000   0.0000000   0.0000000   0.0000000   0.0000000   0.0000000
 NMagM=    0.0000000   2.7928460   2.7928460   2.7928460   0.0000000   2.7928460   2.7928460   0.0000000   2.7928460
 AtZNuc=   6.0000000   1.0000000   1.0000000   1.0000000   6.0000000   1.0000000   1.0000000   8.0000000   1.0000000
 Leave Link  101 at Mon Jun  1 23:53:09 2020, MaxMem=   805306368 cpu:               2.4 elap:               0.6
 (Enter /home/qslin/g16/l103.exe)

 GradGradGradGradGradGradGradGradGradGradGradGradGradGradGradGradGradGrad
 Berny optimization.
 Initialization pass.
                           ----------------------------
                           !    Initial Parameters    !
                           ! (Angstroms and Degrees)  !
 --------------------------                            --------------------------
 ! Name  Definition              Value          Derivative Info.                !
 --------------------------------------------------------------------------------
 ! R1    R(1,2)                  1.07           calculate D2E/DX2 analytically  !
 ! R2    R(1,3)                  1.07           calculate D2E/DX2 analytically  !
 ! R3    R(1,4)                  1.744          calculate D2E/DX2 analytically  !
 ! R4    R(1,5)                  1.5908         calculate D2E/DX2 analytically  !
 ! R5    R(4,8)                  1.1491         calculate D2E/DX2 analytically  !
 ! R6    R(5,6)                  1.07           calculate D2E/DX2 analytically  !
 ! R7    R(5,7)                  1.07           calculate D2E/DX2 analytically  !
 ! R8    R(5,8)                  1.7158         calculate D2E/DX2 analytically  !
 ! R9    R(8,9)                  0.9285         calculate D2E/DX2 analytically  !
 ! A1    A(2,1,3)              128.702          calculate D2E/DX2 analytically  !
 ! A2    A(2,1,4)              102.2834         calculate D2E/DX2 analytically  !
 ! A3    A(2,1,5)              114.1154         calculate D2E/DX2 analytically  !
 ! A4    A(3,1,4)               99.4262         calculate D2E/DX2 analytically  !
 ! A5    A(3,1,5)              113.7            calculate D2E/DX2 analytically  !
 ! A6    A(4,1,5)               84.7733         calculate D2E/DX2 analytically  !
 ! A7    A(1,4,8)               92.9263         calculate D2E/DX2 analytically  !
 ! A8    A(1,5,6)              115.3599         calculate D2E/DX2 analytically  !
 ! A9    A(1,5,7)              115.7356         calculate D2E/DX2 analytically  !
 ! A10   A(1,5,8)               80.4255         calculate D2E/DX2 analytically  !
 ! A11   A(6,5,7)              128.4745         calculate D2E/DX2 analytically  !
 ! A12   A(6,5,8)               95.7652         calculate D2E/DX2 analytically  !
 ! A13   A(7,5,8)               98.6056         calculate D2E/DX2 analytically  !
 ! A14   A(4,8,5)              101.7379         calculate D2E/DX2 analytically  !
 ! A15   A(4,8,9)              139.4751         calculate D2E/DX2 analytically  !
 ! A16   A(5,8,9)              118.6804         calculate D2E/DX2 analytically  !
 ! D1    D(2,1,4,8)            110.4848         calculate D2E/DX2 analytically  !
 ! D2    D(3,1,4,8)           -116.2933         calculate D2E/DX2 analytically  !
 ! D3    D(5,1,4,8)             -3.0919         calculate D2E/DX2 analytically  !
 ! D4    D(2,1,5,6)             -7.1591         calculate D2E/DX2 analytically  !
 ! D5    D(2,1,5,7)            165.9627         calculate D2E/DX2 analytically  !
 ! D6    D(2,1,5,8)            -99.0379         calculate D2E/DX2 analytically  !
 ! D7    D(3,1,5,6)           -168.0082         calculate D2E/DX2 analytically  !
 ! D8    D(3,1,5,7)              5.1136         calculate D2E/DX2 analytically  !
 ! D9    D(3,1,5,8)            100.113          calculate D2E/DX2 analytically  !
 ! D10   D(4,1,5,6)             93.9755         calculate D2E/DX2 analytically  !
 ! D11   D(4,1,5,7)            -92.9027         calculate D2E/DX2 analytically  !
 ! D12   D(4,1,5,8)              2.0968         calculate D2E/DX2 analytically  !
 ! D13   D(1,4,8,5)              2.9156         calculate D2E/DX2 analytically  !
 ! D14   D(1,4,8,9)            178.8102         calculate D2E/DX2 analytically  !
 ! D15   D(1,5,8,4)             -3.2376         calculate D2E/DX2 analytically  !
 ! D16   D(1,5,8,9)            179.8019         calculate D2E/DX2 analytically  !
 ! D17   D(6,5,8,4)           -118.0426         calculate D2E/DX2 analytically  !
 ! D18   D(6,5,8,9)             64.9969         calculate D2E/DX2 analytically  !
 ! D19   D(7,5,8,4)            111.5868         calculate D2E/DX2 analytically  !
 ! D20   D(7,5,8,9)            -65.3736         calculate D2E/DX2 analytically  !
 --------------------------------------------------------------------------------
 Trust Radius=3.00D-01 FncErr=1.00D-07 GrdErr=1.00D-06 EigMax=2.50D+02 EigMin=1.00D-04
 Number of steps in this run=     55 maximum allowed number of steps=    100.
 Search for a saddle point of order  1.
 GradGradGradGradGradGradGradGradGradGradGradGradGradGradGradGradGradGrad

 Leave Link  103 at Mon Jun  1 23:53:09 2020, MaxMem=   805306368 cpu:               0.0 elap:               0.0
 (Enter /home/qslin/g16/l202.exe)
                          Input orientation:                          
 ---------------------------------------------------------------------
 Center     Atomic      Atomic             Coordinates (Angstroms)
 Number     Number       Type             X           Y           Z
 ---------------------------------------------------------------------
      1          6           0       -2.168563   -1.742655   -0.088851
      2          1           0       -1.771000   -2.726354   -0.227345
      3          1           0       -2.696625   -1.129746   -0.789132
      4          1           0       -3.443736   -2.017409    1.068664
      5          6           0       -1.477563   -0.921749    1.085576
      6          1           0       -0.782209   -1.473596    1.682943
      7          1           0       -1.681483    0.128530    1.100764
      8          8           0       -2.881605   -1.467784    1.906782
      9          1           0       -2.998488   -1.229354    2.796511
 ---------------------------------------------------------------------
                    Distance matrix (angstroms):
                    1          2          3          4          5
     1  C    0.000000
     2  H    1.070000   0.000000
     3  H    1.070000   1.929130   0.000000
     4  H    1.743960   2.231656   2.190326   0.000000
     5  C    1.590801   2.250881   2.245864   2.250909   0.000000
     6  H    2.265751   2.489239   3.145533   2.785103   1.070000
     7  H    2.270190   3.149960   2.487061   2.776980   1.070000
     8  O    2.136945   2.715132   2.723315   1.149139   1.715770
     9  H    3.045910   3.590465   3.599706   1.950572   2.309790
                    6          7          8          9
     6  H    0.000000
     7  H    1.927287   0.000000
     8  O    2.111303   2.153642   0.000000
     9  H    2.492304   2.540455   0.928509   0.000000
 Stoichiometry    C2H6O
 Framework group  C1[X(C2H6O)]
 Deg. of freedom    21
 Full point group                 C1      NOp   1
 Largest Abelian subgroup         C1      NOp   1
 Largest concise Abelian subgroup C1      NOp   1
                         Standard orientation:                         
 ---------------------------------------------------------------------
 Center     Atomic      Atomic             Coordinates (Angstroms)
 Number     Number       Type             X           Y           Z
 ---------------------------------------------------------------------
      1          6           0        1.118937   -0.368930    0.005348
      2          1           0        1.506824   -0.615903    0.971499
      3          1           0        1.519984   -0.607374   -0.957567
      4          1           0       -0.349247   -1.308103   -0.056190
      5          6           0        0.143331    0.887570   -0.001600
      6          1           0       -0.114090    1.273243    0.962709
      7          1           0       -0.073868    1.301833   -0.963947
      8          8           0       -1.017996   -0.375430    0.002276
      9          1           0       -1.919244   -0.152091    0.002801
 ---------------------------------------------------------------------
 Rotational constants (GHZ):          22.1169135          11.4485601           8.4944745
 Leave Link  202 at Mon Jun  1 23:53:09 2020, MaxMem=   805306368 cpu:               0.0 elap:               0.0
 (Enter /home/qslin/g16/l301.exe)
 Standard basis: 6-31G(d) (6D, 7F)
 Ernie: Thresh=  0.10000D-02 Tol=  0.10000D-05 Strict=F.
 There are    57 symmetry adapted cartesian basis functions of A   symmetry.
 There are    57 symmetry adapted basis functions of A   symmetry.
    57 basis functions,   108 primitive gaussians,    57 cartesian basis functions
    13 alpha electrons       13 beta electrons
       nuclear repulsion energy        80.2916168096 Hartrees.
 IExCor=  402 DFT=T Ex+Corr=B3LYP ExCW=0 ScaHFX=  0.200000
 ScaDFX=  0.800000  0.720000  1.000000  0.810000 ScalE2=  1.000000  1.000000
 IRadAn=      5 IRanWt=     -1 IRanGd=            0 ICorTp=0 IEmpDi=141
 NAtoms=    9 NActive=    9 NUniq=    9 SFac= 1.00D+00 NAtFMM=   60 NAOKFM=F Big=F
 Integral buffers will be    131072 words long.
 Raffenetti 2 integral format.
 Two-electron integral symmetry is turned on.
 R6Disp:  Grimme-D3(BJ) Dispersion energy=       -0.0075976707 Hartrees.
 Nuclear repulsion after empirical dispersion term =       80.2840191389 Hartrees.
 Leave Link  301 at Mon Jun  1 23:53:09 2020, MaxMem=   805306368 cpu:               0.1 elap:               0.0
 (Enter /home/qslin/g16/l302.exe)
 NPDir=0 NMtPBC=     1 NCelOv=     1 NCel=       1 NClECP=     1 NCelD=      1
         NCelK=      1 NCelE2=     1 NClLst=     1 CellRange=     0.0.
 One-electron integrals computed using PRISM.
 One-electron integral symmetry used in STVInt
 NBasis=    57 RedAO= T EigKep=  8.17D-03  NBF=    57
 NBsUse=    57 1.00D-06 EigRej= -1.00D+00 NBFU=    57
 Precomputing XC quadrature grid using
 IXCGrd= 4 IRadAn=           5 IRanWt=          -1 IRanGd=           0 AccXCQ= 0.00D+00.
 Generated NRdTot=       0 NPtTot=           0 NUsed=           0 NTot=          32
 NSgBfM=    57    57    57    57    57 MxSgAt=     9 MxSgA2=     9.
 Leave Link  302 at Mon Jun  1 23:53:09 2020, MaxMem=   805306368 cpu:               0.7 elap:               0.2
 (Enter /home/qslin/g16/l303.exe)
 DipDrv:  MaxL=1.
 Leave Link  303 at Mon Jun  1 23:53:09 2020, MaxMem=   805306368 cpu:               0.1 elap:               0.0
 (Enter /home/qslin/g16/l401.exe)
 ExpMin= 1.61D-01 ExpMax= 5.48D+03 ExpMxC= 8.25D+02 IAcc=3 IRadAn=         5 AccDes= 0.00D+00
 Harris functional with IExCor=  402 and IRadAn=       5 diagonalized for initial guess.
 HarFok:  IExCor=  402 AccDes= 0.00D+00 IRadAn=         5 IDoV= 1 UseB2=F ITyADJ=14
 ICtDFT=  3500011 ScaDFX=  1.000000  1.000000  1.000000  1.000000
 FoFCou: FMM=F IPFlag=           0 FMFlag=      100000 FMFlg1=           0
         NFxFlg=           0 DoJE=T BraDBF=F KetDBF=T FulRan=T
         wScrn=  0.000000 ICntrl=       500 IOpCl=  0 I1Cent=   200000004 NGrid=           0
         NMat0=    1 NMatS0=      1 NMatT0=    0 NMatD0=    1 NMtDS0=    0 NMtDT0=    0
 Petite list used in FoFCou.
 Harris En= -154.912071570238    
 JPrj=0 DoOrth=F DoCkMO=F.
 Leave Link  401 at Mon Jun  1 23:53:10 2020, MaxMem=   805306368 cpu:               2.0 elap:               0.5
 (Enter /home/qslin/g16/l502.exe)
 Keep R1 ints in memory in canonical form, NReq=4886539.
 FoFCou: FMM=F IPFlag=           0 FMFlag=           0 FMFlg1=           0
         NFxFlg=           0 DoJE=F BraDBF=F KetDBF=F FulRan=T
         wScrn=  0.000000 ICntrl=       600 IOpCl=  0 I1Cent=           0 NGrid=           0
         NMat0=    1 NMatS0=   1653 NMatT0=    0 NMatD0=    1 NMtDS0=    0 NMtDT0=    0
 Symmetry not used in FoFCou.
 Two-electron integral symmetry not used.
 Closed shell SCF:
 Using DIIS extrapolation, IDIIS=  1040.
 NGot=   805306368 LenX=   803931623 LenY=   803927933
 Requested convergence on RMS density matrix=1.00D-08 within 128 cycles.
 Requested convergence on MAX density matrix=1.00D-06.
 Requested convergence on             energy=1.00D-06.
 No special actions if energy rises.
 Integral accuracy reduced to 1.0D-05 until final iterations.

 Cycle   1  Pass 0  IDiag  1:
 E= -154.691802422592    
 DIIS: error= 5.44D-02 at cycle   1 NSaved=   1.
 NSaved= 1 IEnMin= 1 EnMin= -154.691802422592     IErMin= 1 ErrMin= 5.44D-02
 ErrMax= 5.44D-02  0.00D+00 EMaxC= 1.00D-01 BMatC= 1.58D-01 BMatP= 1.58D-01
 IDIUse=3 WtCom= 4.56D-01 WtEn= 5.44D-01
 Coeff-Com:  0.100D+01
 Coeff-En:   0.100D+01
 Coeff:      0.100D+01
 Gap=     0.089 Goal=   None    Shift=    0.000
 GapD=    0.089 DampG=0.500 DampE=0.500 DampFc=0.2500 IDamp=-1.
 Damping current iteration by 2.50D-01
 RMSDP=3.32D-02 MaxDP=9.28D-01              OVMax= 5.20D-01

 Cycle   2  Pass 0  IDiag  1:
 E= -154.753197698322     Delta-E=       -0.061395275730 Rises=F Damp=T
 DIIS: error= 2.22D-02 at cycle   2 NSaved=   2.
 NSaved= 2 IEnMin= 2 EnMin= -154.753197698322     IErMin= 2 ErrMin= 2.22D-02
 ErrMax= 2.22D-02  0.00D+00 EMaxC= 1.00D-01 BMatC= 2.64D-02 BMatP= 1.58D-01
 IDIUse=3 WtCom= 7.78D-01 WtEn= 2.22D-01
 Coeff-Com: -0.579D+00 0.158D+01
 Coeff-En:   0.000D+00 0.100D+01
 Coeff:     -0.451D+00 0.145D+01
 Gap=     0.176 Goal=   None    Shift=    0.000
 RMSDP=4.99D-03 MaxDP=5.54D-02 DE=-6.14D-02 OVMax= 3.70D-01

 Cycle   3  Pass 0  IDiag  1:
 E= -154.852630122392     Delta-E=       -0.099432424071 Rises=F Damp=F
 DIIS: error= 1.05D-02 at cycle   3 NSaved=   3.
 NSaved= 3 IEnMin= 3 EnMin= -154.852630122392     IErMin= 3 ErrMin= 1.05D-02
 ErrMax= 1.05D-02  0.00D+00 EMaxC= 1.00D-01 BMatC= 5.26D-03 BMatP= 2.64D-02
 IDIUse=3 WtCom= 8.95D-01 WtEn= 1.05D-01
 Coeff-Com: -0.216D+00 0.678D+00 0.538D+00
 Coeff-En:   0.000D+00 0.000D+00 0.100D+01
 Coeff:     -0.193D+00 0.607D+00 0.586D+00
 Gap=     0.181 Goal=   None    Shift=    0.000
 RMSDP=1.88D-03 MaxDP=1.67D-02 DE=-9.94D-02 OVMax= 4.54D-02

 Cycle   4  Pass 0  IDiag  1:
 E= -154.856282920476     Delta-E=       -0.003652798083 Rises=F Damp=F
 DIIS: error= 5.41D-03 at cycle   4 NSaved=   4.
 NSaved= 4 IEnMin= 4 EnMin= -154.856282920476     IErMin= 4 ErrMin= 5.41D-03
 ErrMax= 5.41D-03  0.00D+00 EMaxC= 1.00D-01 BMatC= 1.49D-03 BMatP= 5.26D-03
 IDIUse=3 WtCom= 9.46D-01 WtEn= 5.41D-02
 Coeff-Com: -0.146D-01 0.802D-01 0.353D+00 0.582D+00
 Coeff-En:   0.000D+00 0.000D+00 0.210D+00 0.790D+00
 Coeff:     -0.138D-01 0.758D-01 0.345D+00 0.593D+00
 Gap=     0.187 Goal=   None    Shift=    0.000
 RMSDP=7.02D-04 MaxDP=7.51D-03 DE=-3.65D-03 OVMax= 1.69D-02

 Cycle   5  Pass 0  IDiag  1:
 E= -154.857483742898     Delta-E=       -0.001200822422 Rises=F Damp=F
 DIIS: error= 1.15D-03 at cycle   5 NSaved=   5.
 NSaved= 5 IEnMin= 5 EnMin= -154.857483742898     IErMin= 5 ErrMin= 1.15D-03
 ErrMax= 1.15D-03  0.00D+00 EMaxC= 1.00D-01 BMatC= 8.45D-05 BMatP= 1.49D-03
 IDIUse=3 WtCom= 9.88D-01 WtEn= 1.15D-02
 Coeff-Com:  0.624D-02-0.589D-02 0.114D+00 0.277D+00 0.608D+00
 Coeff-En:   0.000D+00 0.000D+00 0.000D+00 0.000D+00 0.100D+01
 Coeff:      0.617D-02-0.582D-02 0.113D+00 0.274D+00 0.613D+00
 Gap=     0.188 Goal=   None    Shift=    0.000
 RMSDP=2.25D-04 MaxDP=3.64D-03 DE=-1.20D-03 OVMax= 4.86D-03

 Cycle   6  Pass 0  IDiag  1:
 E= -154.857540854504     Delta-E=       -0.000057111607 Rises=F Damp=F
 DIIS: error= 5.30D-04 at cycle   6 NSaved=   6.
 NSaved= 6 IEnMin= 6 EnMin= -154.857540854504     IErMin= 6 ErrMin= 5.30D-04
 ErrMax= 5.30D-04  0.00D+00 EMaxC= 1.00D-01 BMatC= 1.91D-05 BMatP= 8.45D-05
 IDIUse=3 WtCom= 9.95D-01 WtEn= 5.30D-03
 Coeff-Com:  0.294D-02-0.483D-02 0.396D-01 0.109D+00 0.378D+00 0.475D+00
 Coeff-En:   0.000D+00 0.000D+00 0.000D+00 0.000D+00 0.201D+00 0.799D+00
 Coeff:      0.292D-02-0.480D-02 0.394D-01 0.108D+00 0.377D+00 0.477D+00
 Gap=     0.188 Goal=   None    Shift=    0.000
 RMSDP=8.36D-05 MaxDP=1.18D-03 DE=-5.71D-05 OVMax= 1.69D-03

 Cycle   7  Pass 0  IDiag  1:
 E= -154.857559561009     Delta-E=       -0.000018706505 Rises=F Damp=F
 DIIS: error= 4.24D-05 at cycle   7 NSaved=   7.
 NSaved= 7 IEnMin= 7 EnMin= -154.857559561009     IErMin= 7 ErrMin= 4.24D-05
 ErrMax= 4.24D-05  0.00D+00 EMaxC= 1.00D-01 BMatC= 1.47D-07 BMatP= 1.91D-05
 IDIUse=1 WtCom= 1.00D+00 WtEn= 0.00D+00
 Coeff-Com:  0.115D-02-0.214D-02 0.492D-02 0.146D-01 0.791D-01 0.132D+00
 Coeff-Com:  0.770D+00
 Coeff:      0.115D-02-0.214D-02 0.492D-02 0.146D-01 0.791D-01 0.132D+00
 Coeff:      0.770D+00
 Gap=     0.188 Goal=   None    Shift=    0.000
 RMSDP=7.95D-06 MaxDP=1.11D-04 DE=-1.87D-05 OVMax= 1.44D-04

 Initial convergence to 1.0D-05 achieved.  Increase integral accuracy.
 Cycle   8  Pass 1  IDiag  1:
 E= -154.857562589150     Delta-E=       -0.000003028141 Rises=F Damp=F
 DIIS: error= 9.67D-06 at cycle   1 NSaved=   1.
 NSaved= 1 IEnMin= 1 EnMin= -154.857562589150     IErMin= 1 ErrMin= 9.67D-06
 ErrMax= 9.67D-06  0.00D+00 EMaxC= 1.00D-01 BMatC= 5.33D-09 BMatP= 5.33D-09
 IDIUse=1 WtCom= 1.00D+00 WtEn= 0.00D+00
 Coeff-Com:  0.100D+01
 Coeff:      0.100D+01
 Gap=     0.188 Goal=   None    Shift=    0.000
 RMSDP=7.95D-06 MaxDP=1.11D-04 DE=-3.03D-06 OVMax= 6.49D-05

 Cycle   9  Pass 1  IDiag  1:
 E= -154.857562592714     Delta-E=       -0.000000003565 Rises=F Damp=F
 DIIS: error= 6.19D-06 at cycle   2 NSaved=   2.
 NSaved= 2 IEnMin= 2 EnMin= -154.857562592714     IErMin= 2 ErrMin= 6.19D-06
 ErrMax= 6.19D-06  0.00D+00 EMaxC= 1.00D-01 BMatC= 2.52D-09 BMatP= 5.33D-09
 IDIUse=1 WtCom= 1.00D+00 WtEn= 0.00D+00
 Coeff-Com:  0.403D+00 0.597D+00
 Coeff:      0.403D+00 0.597D+00
 Gap=     0.188 Goal=   None    Shift=    0.000
 RMSDP=1.66D-06 MaxDP=2.69D-05 DE=-3.56D-09 OVMax= 3.33D-05

 Cycle  10  Pass 1  IDiag  1:
 E= -154.857562595096     Delta-E=       -0.000000002382 Rises=F Damp=F
 DIIS: error= 2.19D-06 at cycle   3 NSaved=   3.
 NSaved= 3 IEnMin= 3 EnMin= -154.857562595096     IErMin= 3 ErrMin= 2.19D-06
 ErrMax= 2.19D-06  0.00D+00 EMaxC= 1.00D-01 BMatC= 3.40D-10 BMatP= 2.52D-09
 IDIUse=1 WtCom= 1.00D+00 WtEn= 0.00D+00
 Coeff-Com:  0.218D+00 0.373D+00 0.409D+00
 Coeff:      0.218D+00 0.373D+00 0.409D+00
 Gap=     0.188 Goal=   None    Shift=    0.000
 RMSDP=4.52D-07 MaxDP=8.41D-06 DE=-2.38D-09 OVMax= 1.03D-05

 Cycle  11  Pass 1  IDiag  1:
 E= -154.857562595412     Delta-E=       -0.000000000315 Rises=F Damp=F
 DIIS: error= 3.58D-07 at cycle   4 NSaved=   4.
 NSaved= 4 IEnMin= 4 EnMin= -154.857562595412     IErMin= 4 ErrMin= 3.58D-07
 ErrMax= 3.58D-07  0.00D+00 EMaxC= 1.00D-01 BMatC= 9.69D-12 BMatP= 3.40D-10
 IDIUse=1 WtCom= 1.00D+00 WtEn= 0.00D+00
 Coeff-Com:  0.470D-02 0.331D-01 0.146D+00 0.816D+00
 Coeff:      0.470D-02 0.331D-01 0.146D+00 0.816D+00
 Gap=     0.188 Goal=   None    Shift=    0.000
 RMSDP=1.18D-07 MaxDP=1.53D-06 DE=-3.15D-10 OVMax= 3.18D-06

 Cycle  12  Pass 1  IDiag  1:
 E= -154.857562595424     Delta-E=       -0.000000000012 Rises=F Damp=F
 DIIS: error= 1.11D-07 at cycle   5 NSaved=   5.
 NSaved= 5 IEnMin= 5 EnMin= -154.857562595424     IErMin= 5 ErrMin= 1.11D-07
 ErrMax= 1.11D-07  0.00D+00 EMaxC= 1.00D-01 BMatC= 6.91D-13 BMatP= 9.69D-12
 IDIUse=1 WtCom= 1.00D+00 WtEn= 0.00D+00
 Coeff-Com: -0.140D-01-0.156D-01-0.558D-02 0.212D+00 0.824D+00
 Coeff:     -0.140D-01-0.156D-01-0.558D-02 0.212D+00 0.824D+00
 Gap=     0.188 Goal=   None    Shift=    0.000
 RMSDP=1.93D-08 MaxDP=2.21D-07 DE=-1.22D-11 OVMax= 3.93D-07

 Cycle  13  Pass 1  IDiag  1:
 E= -154.857562595426     Delta-E=       -0.000000000002 Rises=F Damp=F
 DIIS: error= 1.47D-08 at cycle   6 NSaved=   6.
 NSaved= 6 IEnMin= 6 EnMin= -154.857562595426     IErMin= 6 ErrMin= 1.47D-08
 ErrMax= 1.47D-08  0.00D+00 EMaxC= 1.00D-01 BMatC= 1.01D-14 BMatP= 6.91D-13
 IDIUse=1 WtCom= 1.00D+00 WtEn= 0.00D+00
 Coeff-Com: -0.282D-02-0.326D-02-0.484D-02 0.262D-01 0.143D+00 0.842D+00
 Coeff:     -0.282D-02-0.326D-02-0.484D-02 0.262D-01 0.143D+00 0.842D+00
 Gap=     0.188 Goal=   None    Shift=    0.000
 RMSDP=4.32D-09 MaxDP=1.05D-07 DE=-1.76D-12 OVMax= 8.61D-08

 SCF Done:  E(RB3LYP) =  -154.857562595     A.U. after   13 cycles
            NFock= 13  Conv=0.43D-08     -V/T= 2.0082
 KE= 1.535985967461D+02 PE=-5.223727129907D+02 EE= 1.336325345103D+02
 Leave Link  502 at Mon Jun  1 23:53:14 2020, MaxMem=   805306368 cpu:              15.7 elap:               4.1
 (Enter /home/qslin/g16/l801.exe)
 DoSCS=F DFT=T ScalE2(SS,OS)=  1.000000  1.000000
 Range of M.O.s used for correlation:     1    57
 NBasis=    57 NAE=    13 NBE=    13 NFC=     0 NFV=     0
 NROrb=     57 NOA=    13 NOB=    13 NVA=    44 NVB=    44
 Leave Link  801 at Mon Jun  1 23:53:14 2020, MaxMem=   805306368 cpu:               0.0 elap:               0.0
 (Enter /home/qslin/g16/l1101.exe)
 Using compressed storage, NAtomX=     9.
 Will process     10 centers per pass.
 R6Disp: Adding Grimme-D3(BJ) dispersion energy 1st derivatives to the gradient.
 Leave Link 1101 at Mon Jun  1 23:53:14 2020, MaxMem=   805306368 cpu:               0.4 elap:               0.1
 (Enter /home/qslin/g16/l1102.exe)
 Symmetrizing basis deriv contribution to polar:
 IMax=3 JMax=2 DiffMx= 0.00D+00
 Leave Link 1102 at Mon Jun  1 23:53:14 2020, MaxMem=   805306368 cpu:               0.1 elap:               0.0
 (Enter /home/qslin/g16/l1110.exe)
 Forming Gx(P) for the SCF density, NAtomX=     9.
 Integral derivatives from FoFJK, PRISM(SPDF).
 Do as many integral derivatives as possible in FoFJK.
 G2DrvN: MDV=     805305584.
 G2DrvN: will do    10 centers at a time, making    1 passes.
 Calling FoFCou, ICntrl=  3107 FMM=F I1Cent=   0 AccDes= 0.00D+00.
 FoFJK:  IHMeth= 1 ICntrl=    3107 DoSepK=F KAlg= 0 I1Cent=           0 FoldK=F
 IRaf=         0 NMat=       1 IRICut=       1 DoRegI=T DoRafI=F ISym2E= 0 IDoP0=0 IntGTp=1.
 FoFCou: FMM=F IPFlag=           0 FMFlag=      100000 FMFlg1=           0
         NFxFlg=           0 DoJE=F BraDBF=F KetDBF=F FulRan=T
         wScrn=  0.000000 ICntrl=      3107 IOpCl=  0 I1Cent=           0 NGrid=           0
         NMat0=    1 NMatS0=      1 NMatT0=    0 NMatD0=    1 NMtDS0=    0 NMtDT0=    0
 Symmetry not used in FoFCou.
 End of G2Drv F.D. properties file   721 does not exist.
 End of G2Drv F.D. properties file   722 does not exist.
 End of G2Drv F.D. properties file   788 does not exist.
 Leave Link 1110 at Mon Jun  1 23:53:21 2020, MaxMem=   805306368 cpu:              24.8 elap:               6.4
 (Enter /home/qslin/g16/l1002.exe)
 Minotr:  Closed shell wavefunction.
          IDoAtm=111111111
          Direct CPHF calculation.
          Differentiating once with respect to nuclear coordinates.
          Requested convergence is 1.0D-08 RMS, and 1.0D-07 maximum.
          Secondary convergence is 1.0D-12 RMS, and 1.0D-12 maximum.
          NewPWx=T KeepS1=F KeepF1=F KeepIn=T MapXYZ=F SortEE=F KeepMc=T.
         2641 words used for storage of precomputed grid.
 Keep R1 ints in memory in canonical form, NReq=4880991.
 FoFCou: FMM=F IPFlag=           0 FMFlag=           0 FMFlg1=           0
         NFxFlg=           0 DoJE=F BraDBF=F KetDBF=F FulRan=T
         wScrn=  0.000000 ICntrl=       600 IOpCl=  0 I1Cent=           0 NGrid=           0
         NMat0=    1 NMatS0=   1653 NMatT0=    0 NMatD0=    1 NMtDS0=    0 NMtDT0=    0
 Symmetry not used in FoFCou.
 Two-electron integral symmetry not used.
          MDV=     805306368 using IRadAn=       1.
          Solving linear equations simultaneously, MaxMat=       0.
          There are    30 degrees of freedom in the 1st order CPHF.  IDoFFX=6 NUNeed=     0.
     24 vectors produced by pass  0 Test12= 1.91D-15 3.33D-09 XBig12= 9.37D-02 2.00D-01.
 AX will form    24 AO Fock derivatives at one time.
     24 vectors produced by pass  1 Test12= 1.91D-15 3.33D-09 XBig12= 6.51D-03 2.89D-02.
     24 vectors produced by pass  2 Test12= 1.91D-15 3.33D-09 XBig12= 5.00D-05 2.27D-03.
     24 vectors produced by pass  3 Test12= 1.91D-15 3.33D-09 XBig12= 2.04D-07 1.49D-04.
     24 vectors produced by pass  4 Test12= 1.91D-15 3.33D-09 XBig12= 2.08D-10 3.63D-06.
     13 vectors produced by pass  5 Test12= 1.91D-15 3.33D-09 XBig12= 1.49D-13 9.59D-08.
 InvSVY:  IOpt=1 It=  1 EMax= 1.67D-15
 Solved reduced A of dimension   133 with    24 vectors.
 End of Minotr F.D. properties file   721 does not exist.
 End of Minotr F.D. properties file   722 does not exist.
 End of Minotr F.D. properties file   788 does not exist.
 Leave Link 1002 at Mon Jun  1 23:53:26 2020, MaxMem=   805306368 cpu:              21.0 elap:               5.4
 (Enter /home/qslin/g16/l601.exe)
 Copying SCF densities to generalized density rwf, IOpCl= 0 IROHF=0.

 **********************************************************************

            Population analysis using the SCF density.

 **********************************************************************

 Orbital symmetries:
       Occupied  (A) (A) (A) (A) (A) (A) (A) (A) (A) (A) (A) (A)
                 (A)
       Virtual   (A) (A) (A) (A) (A) (A) (A) (A) (A) (A) (A) (A)
                 (A) (A) (A) (A) (A) (A) (A) (A) (A) (A) (A) (A)
                 (A) (A) (A) (A) (A) (A) (A) (A) (A) (A) (A) (A)
                 (A) (A) (A) (A) (A) (A) (A) (A)
 The electronic state is 1-A.
 Alpha  occ. eigenvalues --  -19.16066 -10.24128 -10.13930  -1.01736  -0.71908
 Alpha  occ. eigenvalues --   -0.59903  -0.54036  -0.47604  -0.40644  -0.37226
 Alpha  occ. eigenvalues --   -0.33760  -0.31135  -0.15920
 Alpha virt. eigenvalues --    0.02856   0.07748   0.11025   0.14069   0.16511
 Alpha virt. eigenvalues --    0.16993   0.23402   0.24192   0.49700   0.55491
 Alpha virt. eigenvalues --    0.57712   0.59251   0.63597   0.68991   0.83378
 Alpha virt. eigenvalues --    0.83849   0.90382   0.92435   0.93084   0.95308
 Alpha virt. eigenvalues --    0.99973   1.06696   1.10480   1.14295   1.24709
 Alpha virt. eigenvalues --    1.47424   1.50053   1.64937   1.75001   1.80622
 Alpha virt. eigenvalues --    1.83202   1.98249   1.99614   2.07454   2.10763
 Alpha virt. eigenvalues --    2.18087   2.29310   2.38674   2.49221   2.51263
 Alpha virt. eigenvalues --    2.70023   3.71703   4.14443   4.38832
          Condensed to atoms (all electrons):
               1          2          3          4          5          6
     1  C    5.374974   0.373991   0.370625   0.252104   0.470964  -0.025749
     2  H    0.373991   0.554063  -0.027317  -0.008421  -0.035548  -0.004813
     3  H    0.370625  -0.027317   0.558987  -0.009704  -0.036747   0.002833
     4  H    0.252104  -0.008421  -0.009704   0.506761   0.000931   0.004562
     5  C    0.470964  -0.035548  -0.036747   0.000931   4.947921   0.375761
     6  H   -0.025749  -0.004813   0.002833   0.004562   0.375761   0.525133
     7  H   -0.026055   0.002782  -0.004674   0.004144   0.375141  -0.030977
     8  O   -0.318966   0.006467   0.007231  -0.083500  -0.003223  -0.026420
     9  H    0.037057  -0.000974  -0.001065   0.050278   0.024635   0.002597
               7          8          9
     1  C   -0.026055  -0.318966   0.037057
     2  H    0.002782   0.006467  -0.000974
     3  H   -0.004674   0.007231  -0.001065
     4  H    0.004144  -0.083500   0.050278
     5  C    0.375141  -0.003223   0.024635
     6  H   -0.030977  -0.026420   0.002597
     7  H    0.525490  -0.024291   0.002189
     8  O   -0.024291   9.008085   0.037903
     9  H    0.002189   0.037903   0.531077
 Mulliken charges:
               1
     1  C   -0.508945
     2  H    0.139771
     3  H    0.139828
     4  H    0.282844
     5  C   -0.119835
     6  H    0.177072
     7  H    0.176249
     8  O   -0.603287
     9  H    0.316303
 Sum of Mulliken charges =  -0.00000
 Mulliken charges with hydrogens summed into heavy atoms:
               1
     1  C   -0.229346
     5  C    0.233486
     8  O   -0.004140
 APT charges:
               1
     1  C   -1.085288
     2  H    0.368558
     3  H    0.362367
     4  H    0.282084
     5  C   -0.613017
     6  H    0.391322
     7  H    0.400486
     8  O   -0.568548
     9  H    0.462037
 Sum of APT charges =  -0.00000
 APT charges with hydrogens summed into heavy atoms:
               1
     1  C   -0.354363
     5  C    0.178791
     8  O    0.175572
 Electronic spatial extent (au):  <R**2>=            188.1510
 Charge=             -0.0000 electrons
 Dipole moment (field-independent basis, Debye):
    X=             -1.9502    Y=              0.9589    Z=             -0.0631  Tot=              2.1741
 Quadrupole moment (field-independent basis, Debye-Ang):
   XX=            -20.1148   YY=            -19.1121   ZZ=            -19.2158
   XY=             -0.2925   XZ=              0.0036   YZ=              0.0548
 Traceless Quadrupole moment (field-independent basis, Debye-Ang):
   XX=             -0.6339   YY=              0.3688   ZZ=              0.2651
   XY=             -0.2925   XZ=              0.0036   YZ=              0.0548
 Octapole moment (field-independent basis, Debye-Ang**2):
  XXX=            -17.8420  YYY=             -0.4212  ZZZ=              0.0421  XYY=             -3.6340
  XXY=             -1.0943  XXZ=              0.0302  XZZ=             -0.8413  YZZ=              1.2081
  YYZ=             -0.1946  XYZ=             -0.1268
 Hexadecapole moment (field-independent basis, Debye-Ang**3):
 XXXX=           -125.3224 YYYY=            -77.9003 ZZZZ=            -31.8535 XXXY=              0.4877
 XXXZ=             -0.0583 YYYX=              3.9699 YYYZ=             -0.0073 ZZZX=             -0.0209
 ZZZY=             -0.0934 XXYY=            -35.9365 XXZZ=            -26.7868 YYZZ=            -17.1730
 XXYZ=             -0.0018 YYXZ=              0.0189 ZZXY=             -0.8542
 N-N= 8.028401913889D+01 E-N=-5.223727113329D+02  KE= 1.535985967461D+02
  Exact polarizability:   0.000   0.000   0.000   0.000   0.000   0.000
 Approx polarizability:  73.656  -3.479  55.451   0.315   0.533  30.382
 No NMR shielding tensors so no spin-rotation constants.
 Leave Link  601 at Mon Jun  1 23:53:26 2020, MaxMem=   805306368 cpu:               0.4 elap:               0.1
 (Enter /home/qslin/g16/l701.exe)
 ... and contract with generalized density number  0.
 Compute integral second derivatives.
 R6Disp: Adding Grimme-D3(BJ) dispersion energy 2nd derivatives to the Hessian.
 Leave Link  701 at Mon Jun  1 23:53:27 2020, MaxMem=   805306368 cpu:               0.7 elap:               0.2
 (Enter /home/qslin/g16/l702.exe)
 L702 exits ... SP integral derivatives will be done elsewhere.
 Leave Link  702 at Mon Jun  1 23:53:27 2020, MaxMem=   805306368 cpu:               0.1 elap:               0.0
 (Enter /home/qslin/g16/l703.exe)
 Integral derivatives from FoFJK, PRISM(SPDF).
 Compute integral second derivatives, UseDBF=F ICtDFT=           0.
 Calling FoFJK, ICntrl=    100147 FMM=F ISym2X=0 I1Cent= 0 IOpClX= 0 NMat=1 NMatS=1 NMatT=0.
 FoFJK:  IHMeth= 1 ICntrl=  100147 DoSepK=F KAlg= 0 I1Cent=           0 FoldK=F
 IRaf=         0 NMat=       1 IRICut=       1 DoRegI=T DoRafI=F ISym2E= 0 IDoP0=0 IntGTp=1.
 FoFCou: FMM=F IPFlag=           0 FMFlag=      100000 FMFlg1=         800
         NFxFlg=           0 DoJE=F BraDBF=F KetDBF=F FulRan=T
         wScrn=  0.000000 ICntrl=    100147 IOpCl=  0 I1Cent=           0 NGrid=           0
         NMat0=    1 NMatS0=      1 NMatT0=    0 NMatD0=    1 NMtDS0=    0 NMtDT0=    0
 Symmetry not used in FoFCou.
 Leave Link  703 at Mon Jun  1 23:53:42 2020, MaxMem=   805306368 cpu:              51.2 elap:              14.8
 (Enter /home/qslin/g16/l716.exe)
 Dipole        =-7.67278843D-01 3.77259068D-01-2.48242126D-02
 Polarizability= 0.00000000D+00 0.00000000D+00 0.00000000D+00
                 0.00000000D+00 0.00000000D+00 0.00000000D+00
 ***** Axes restored to original set *****
 -------------------------------------------------------------------
 Center     Atomic                   Forces (Hartrees/Bohr)
 Number     Number              X              Y              Z
 -------------------------------------------------------------------
      1        6           0.034202672    0.036582938    0.035715394
      2        1           0.005413728   -0.005199072   -0.016463789
      3        1           0.005070560   -0.001420575   -0.019480474
      4        1           0.029955969    0.010660525   -0.011323143
      5        6          -0.090404540   -0.079290391   -0.068330376
      6        1           0.018003546    0.008942402    0.003513595
      7        1           0.013253515    0.011772955    0.003592375
      8        8           0.011710165    0.006015982   -0.003883111
      9        1          -0.027205613    0.011935237    0.076659530
 -------------------------------------------------------------------
 Cartesian Forces:  Max     0.090404540 RMS     0.034682595
 Force constants in Cartesian coordinates: 
                1             2             3             4             5 
      1  0.173649D+00
      2 -0.288004D+00  0.567755D+00
      3  0.118978D+00 -0.461159D-01  0.426266D+00
      4 -0.639470D-01  0.142776D+00  0.465494D-03  0.733725D-01
      5  0.128006D+00 -0.323922D+00 -0.453207D-01 -0.129527D+00  0.339240D+00
      6 -0.781452D-02 -0.536541D-01 -0.388647D-01 -0.318388D-02  0.545598D-01
      7 -0.852830D-01  0.103463D+00 -0.119899D+00 -0.694419D-02 -0.285260D-03
      8  0.109722D+00 -0.158437D+00  0.126775D+00  0.338493D-02 -0.483272D-02
      9 -0.136650D+00  0.120818D+00 -0.180982D+00  0.880706D-02 -0.502640D-02
     10  0.394587D-02  0.118956D-01 -0.537890D-02 -0.685828D-02 -0.134182D-02
     11 -0.139318D-01 -0.267784D-01  0.826104D-02  0.660773D-02  0.228372D-02
     12 -0.818035D-01 -0.320381D-01  0.122901D-01  0.337393D-02  0.160572D-02
     13 -0.100443D+00 -0.405270D-02 -0.328687D-01  0.723004D-02  0.673030D-02
     14  0.217545D-01 -0.102663D+00 -0.693851D-02 -0.168807D-01 -0.115715D-01
     15  0.430892D-01  0.370425D-01 -0.752308D-01 -0.112791D-01 -0.494405D-02
     16  0.967418D-03  0.477074D-02 -0.240884D-02 -0.121790D-02 -0.893459D-03
     17 -0.816424D-02  0.103472D-01 -0.563490D-02 -0.112670D-03  0.632984D-03
     18 -0.141550D-01  0.104316D-01 -0.764614D-02  0.269389D-02  0.784243D-03
     19  0.638657D-02 -0.641311D-02  0.114517D-02  0.101019D-02 -0.307230D-03
     20  0.344538D-02 -0.612087D-02  0.519851D-03 -0.152306D-02 -0.941510D-04
     21  0.349527D-02 -0.209116D-01  0.367449D-02 -0.546092D-02 -0.313894D-02
     22  0.436582D-01  0.254404D-01  0.309131D-01 -0.166149D-02 -0.178816D-02
     23  0.387225D-01  0.286382D-01 -0.267322D-01 -0.349522D-02 -0.111964D-02
     24  0.704134D-01 -0.799136D-02 -0.115694D+00  0.144857D-02  0.453913D-03
     25  0.210664D-01  0.101240D-01  0.905378D-02 -0.983845D-03 -0.593133D-03
     26  0.845019D-02  0.111801D-01 -0.481327D-02 -0.123027D-02 -0.616684D-03
     27  0.444728D-02 -0.758115D-02 -0.238121D-01  0.313494D-02  0.102643D-02
                6             7             8             9            10 
      6  0.398463D-01
      7 -0.347577D-02  0.103126D+00
      8  0.189530D-01 -0.102347D+00  0.155973D+00
      9  0.696232D-02  0.131048D+00 -0.129591D+00  0.192995D+00
     10  0.436986D-02  0.451134D-03 -0.695882D-03  0.756161D-04  0.645647D-01
     11 -0.543586D-02 -0.495433D-02 -0.249096D-02  0.423819D-02  0.355357D-01
     12 -0.367471D-02  0.966285D-02  0.222581D-02 -0.745747D-02  0.449126D-01
     13  0.867034D-02 -0.342906D-02 -0.816572D-02 -0.879092D-02 -0.749375D-02
     14 -0.183381D-01  0.555997D-02  0.974353D-02  0.137018D-01 -0.430869D-02
     15  0.200330D-02 -0.175461D-01 -0.161820D-01 -0.840469D-02 -0.755674D-02
     16  0.108218D-02  0.164664D-02 -0.673700D-03 -0.198718D-02 -0.185943D-02
     17  0.693533D-03 -0.159268D-02 -0.147237D-02 -0.224185D-02 -0.159414D-02
     18 -0.346332D-03 -0.486554D-02 -0.360918D-02  0.633835D-04 -0.573520D-03
     19 -0.297203D-02 -0.135749D-02 -0.539302D-03  0.137322D-02 -0.698864D-03
     20 -0.127459D-02 -0.327099D-03  0.742685D-03 -0.687380D-04 -0.677201D-03
     21 -0.682500D-03  0.234701D-02  0.141270D-02 -0.345526D-03 -0.104272D-02
     22  0.205111D-02 -0.515384D-02 -0.558867D-03  0.358764D-02 -0.626559D-01
     23  0.265463D-02 -0.473910D-03  0.270777D-03 -0.104843D-02 -0.515307D-01
     24 -0.313538D-02  0.219101D-03 -0.105593D-02 -0.122968D-02 -0.408068D-01
     25  0.127271D-02 -0.305657D-02 -0.125833D-03  0.253720D-02  0.106045D-01
     26  0.184166D-02  0.957846D-03  0.502772D-03 -0.782017D-03  0.127172D-01
     27 -0.210831D-02  0.251000D-02  0.107165D-02 -0.160162D-02  0.600068D-02
               11            12            13            14            15 
     11  0.416962D-01
     12 -0.319530D-02 -0.482728D-01
     13 -0.173949D-01 -0.437981D-01  0.298544D+00
     14 -0.409292D-02  0.341614D-02 -0.201256D+00  0.655896D+00
     15  0.237709D-01  0.824075D-01  0.230649D+00 -0.741001D-01  0.223359D+00
     16  0.193218D-02  0.584214D-02 -0.171633D+00  0.118762D+00 -0.133160D+00
     17  0.571414D-03  0.175963D-02  0.125569D+00 -0.144221D+00  0.949831D-01
     18 -0.237333D-02 -0.545749D-02 -0.141989D+00  0.964475D-01 -0.139822D+00
     19  0.525512D-03  0.650554D-02 -0.466321D-01  0.785125D-01 -0.159769D-01
     20 -0.493546D-03  0.140306D-02  0.690021D-01 -0.376116D+00 -0.284060D-02
     21 -0.214136D-02 -0.505240D-02 -0.140917D-01 -0.837657D-02 -0.359921D-01
     22 -0.273210D-01  0.295646D-01 -0.124401D-02 -0.103530D-01 -0.723151D-01
     23 -0.114949D-01  0.832118D-02  0.154475D-01 -0.330899D-01 -0.452699D-01
     24 -0.287327D-01 -0.232860D-01 -0.170733D-02 -0.367959D-02 -0.388201D-01
     25  0.190008D-01  0.257400D-01  0.251017D-01  0.820949D-02 -0.159047D-01
     26  0.799385D-03  0.165018D-01  0.141202D-01  0.611483D-02 -0.124597D-01
     27  0.560846D-02 -0.149672D-02  0.392688D-02 -0.213261D-02 -0.950012D-02
               16            17            18            19            20 
     16  0.198301D+00
     17 -0.118447D+00  0.134666D+00
     18  0.134485D+00 -0.100294D+00  0.145896D+00
     19  0.339654D-02  0.148009D-01  0.486044D-02  0.523694D-01
     20 -0.135712D-02 -0.133424D-02 -0.426942D-02 -0.625111D-01  0.388911D+00
     21  0.380363D-03  0.131229D-01  0.184599D-02  0.324408D-02  0.507686D-02
     22 -0.276176D-01 -0.107838D-01  0.193242D-01 -0.136841D-01 -0.535143D-02
     23 -0.383654D-02  0.127461D-02  0.253576D-02 -0.234876D-01 -0.431461D-02
     24 -0.382407D-02 -0.218405D-02  0.472340D-02  0.264351D-02  0.934942D-03
     25 -0.198383D-02  0.324573D-03  0.219722D-03 -0.790122D-03 -0.700429D-03
     26 -0.256887D-03 -0.464562D-03  0.346462D-03 -0.580544D-03 -0.117997D-02
     27 -0.410261D-03 -0.204702D-03  0.743094D-03 -0.822982D-03  0.518636D-03
               21            22            23            24            25 
     21  0.362435D-01
     22  0.107615D-01  0.121591D+00
     23  0.140554D-01  0.570660D-01  0.468834D-01
     24 -0.264100D-03 -0.984697D-01  0.206551D+00  0.727766D+00
     25  0.367094D-03 -0.532318D-01 -0.284120D-01  0.700834D-01  0.327351D-02
     26  0.900581D-03 -0.263501D-01 -0.270480D-01 -0.164296D+00 -0.782753D-02
     27  0.572559D-03  0.745827D-01 -0.161067D+00 -0.550060D+00 -0.933692D-01
               26            27 
     26  0.107121D-01
     27  0.162760D+00  0.587263D+00
 FormGI is forming the generalized inverse of G from B-inverse, IUseBI=4.
 Leave Link  716 at Mon Jun  1 23:53:42 2020, MaxMem=   805306368 cpu:               0.1 elap:               0.0
 (Enter /home/qslin/g16/l103.exe)

 GradGradGradGradGradGradGradGradGradGradGradGradGradGradGradGradGradGrad
 Berny optimization.
 Red2BG is reusing G-inverse.
 Internal  Forces:  Max     0.079947169 RMS     0.021078415
 Search for a saddle point.
 Step number   1 out of a maximum of   55
 All quantities printed in internal units (Hartrees-Bohrs-Radians)
 Swapping is turned off.
 Second derivative matrix not updated -- analytic derivatives used.
 ITU=  0
     Eigenvalues ---   -0.13792  -0.00631   0.00423   0.00575   0.01021
     Eigenvalues ---    0.01988   0.03490   0.04478   0.04867   0.05444
     Eigenvalues ---    0.06253   0.08974   0.09600   0.10125   0.15049
     Eigenvalues ---    0.24565   0.39745   0.39835   0.40049   0.40281
     Eigenvalues ---    0.64784
 Eigenvectors required to have negative eigenvalues:
                          R3        R8        R5        R4        A15
   1                    0.51220   0.50454  -0.50161  -0.28741  -0.25052
                          A16       D7        D5        D10       A14
   1                    0.19302  -0.10748   0.10088  -0.06742   0.05736
 Eigenvalue     2 is  -6.31D-03 should be greater than     0.000000 Eigenvector:
                          D14       D16       D18       D20       D19
   1                    0.60768  -0.40117  -0.37613  -0.37524   0.17282
                          D17       D15       D3        D13       D1
   1                    0.17194   0.14689   0.14004  -0.13226   0.13189
 RFO step:  Lambda0=1.405623467D-03 Lambda=-7.46744678D-02.
 Linear search not attempted -- option 19 set.
 Maximum step size (   0.300) exceeded in Quadratic search.
    -- Step size scaled by   0.491
 Iteration  1 RMS(Cart)=  0.04843265 RMS(Int)=  0.00468522
 Iteration  2 RMS(Cart)=  0.00329168 RMS(Int)=  0.00315140
 Iteration  3 RMS(Cart)=  0.00001134 RMS(Int)=  0.00315135
 Iteration  4 RMS(Cart)=  0.00000006 RMS(Int)=  0.00315135
 ITry= 1 IFail=0 DXMaxC= 1.69D-01 DCOld= 1.00D+10 DXMaxT= 3.00D-01 DXLimC= 3.00D+00 Rises=F
 Variable       Old X    -DE/DX   Delta X   Delta X   Delta X     New X
                                 (Linear)    (Quad)   (Total)
    R1        2.02201   0.00892   0.00000   0.01168   0.01168   2.03368
    R2        2.02201   0.00943   0.00000   0.01159   0.01159   2.03360
    R3        3.29561   0.01292   0.00000  -0.08449  -0.08792   3.20769
    R4        3.00618  -0.05517   0.00000  -0.15065  -0.15260   2.85358
    R5        2.17156   0.00856   0.00000   0.04304   0.04492   2.21648
    R6        2.02201   0.00905   0.00000   0.01174   0.01174   2.03375
    R7        2.02201   0.00908   0.00000   0.01080   0.01080   2.03281
    R8        3.24233   0.00089   0.00000  -0.00618  -0.00236   3.23998
    R9        1.75463   0.07995   0.00000   0.04697   0.04697   1.80160
    A1        2.24627  -0.01298   0.00000  -0.05574  -0.05608   2.19020
    A2        1.78518   0.01166   0.00000   0.01285   0.01368   1.79886
    A3        1.99169   0.00581   0.00000   0.01817   0.01762   2.00931
    A4        1.73532   0.01265   0.00000   0.03783   0.03993   1.77524
    A5        1.98444   0.00584   0.00000   0.02751   0.02872   2.01316
    A6        1.47957  -0.02308   0.00000  -0.01828  -0.02260   1.45697
    A7        1.62187   0.03190   0.00000   0.07970   0.08148   1.70335
    A8        2.01341   0.00493   0.00000   0.01389   0.01051   2.02392
    A9        2.01997   0.00117   0.00000   0.02175   0.02219   2.04216
   A10        1.40369   0.04429   0.00000   0.08022   0.08270   1.48639
   A11        2.24230  -0.00857   0.00000  -0.04541  -0.04556   2.19674
   A12        1.67142  -0.00814   0.00000   0.01791   0.01666   1.68808
   A13        1.72099  -0.01007   0.00000  -0.00816  -0.01130   1.70969
   A14        1.77566  -0.05302   0.00000  -0.13671  -0.13918   1.63648
   A15        2.43430   0.00972   0.00000   0.04422   0.03226   2.46656
   A16        2.07136   0.04333   0.00000   0.10675   0.09395   2.16531
    D1        1.92832   0.00170   0.00000   0.06862   0.06884   1.99716
    D2       -2.02970  -0.00193   0.00000   0.02946   0.03101  -1.99869
    D3       -0.05396   0.00037   0.00000   0.05371   0.05548   0.00151
    D4       -0.12495   0.00783   0.00000   0.01325   0.01440  -0.11055
    D5        2.89660  -0.01246   0.00000  -0.06798  -0.06815   2.82845
    D6       -1.72854  -0.00308   0.00000  -0.04223  -0.04234  -1.77087
    D7       -2.93230   0.01417   0.00000   0.05185   0.05202  -2.88027
    D8        0.08925  -0.00612   0.00000  -0.02938  -0.03053   0.05872
    D9        1.74730   0.00326   0.00000  -0.00363  -0.00472   1.74259
   D10        1.64018   0.01046   0.00000   0.01923   0.01911   1.65930
   D11       -1.62146  -0.00983   0.00000  -0.06200  -0.06344  -1.68489
   D12        0.03660  -0.00045   0.00000  -0.03625  -0.03763  -0.00103
   D13        0.05089  -0.00196   0.00000  -0.05462  -0.05221  -0.00133
   D14        3.12083  -0.00056   0.00000   0.22093   0.21780  -2.94456
   D15       -0.05651   0.00144   0.00000   0.06028   0.05799   0.00148
   D16        3.13814   0.00106   0.00000  -0.14322  -0.14426   2.99387
   D17       -2.06023  -0.00617   0.00000   0.04601   0.04376  -2.01648
   D18        1.13441  -0.00655   0.00000  -0.15749  -0.15850   0.97591
   D19        1.94756   0.00773   0.00000   0.09048   0.08961   2.03717
   D20       -1.14099   0.00735   0.00000  -0.11301  -0.11264  -1.25363
         Item               Value     Threshold  Converged?
 Maximum Force            0.079947     0.000450     NO 
 RMS     Force            0.021078     0.000300     NO 
 Maximum Displacement     0.169304     0.001800     NO 
 RMS     Displacement     0.048496     0.001200     NO 
 Predicted change in Energy=-3.125587D-02
 Lowest energy point so far.  Saving SCF results.
 GradGradGradGradGradGradGradGradGradGradGradGradGradGradGradGradGradGrad

 Leave Link  103 at Mon Jun  1 23:53:42 2020, MaxMem=   805306368 cpu:               0.1 elap:               0.0
 (Enter /home/qslin/g16/l202.exe)
                          Input orientation:                          
 ---------------------------------------------------------------------
 Center     Atomic      Atomic             Coordinates (Angstroms)
 Number     Number       Type             X           Y           Z
 ---------------------------------------------------------------------
      1          6           0       -2.156023   -1.728416   -0.076710
      2          1           0       -1.749816   -2.711469   -0.240309
      3          1           0       -2.668253   -1.133634   -0.812861
      4          1           0       -3.386518   -2.005767    1.059180
      5          6           0       -1.523307   -0.953293    1.054264
      6          1           0       -0.807460   -1.491073    1.651412
      7          1           0       -1.680277    0.110856    1.064963
      8          8           0       -2.913056   -1.407252    1.949870
      9          1           0       -3.016563   -1.260070    2.886103
 ---------------------------------------------------------------------
                    Distance matrix (angstroms):
                    1          2          3          4          5
     1  C    0.000000
     2  H    1.076179   0.000000
     3  H    1.076134   1.913349   0.000000
     4  H    1.697436   2.205783   2.186564   0.000000
     5  C    1.510048   2.195087   2.197630   2.139926   0.000000
     6  H    2.204850   2.440494   3.108530   2.695773   1.076212
     7  H    2.216455   3.110319   2.459893   2.718710   1.075717
     8  O    2.187069   2.801962   2.787020   1.172910   1.714523
     9  H    3.120598   3.672282   3.717478   2.007630   2.383183
                    6          7          8          9
     6  H    0.000000
     7  H    1.916223   0.000000
     8  O    2.128295   2.146499   0.000000
     9  H    2.541252   2.642281   0.953366   0.000000
 Stoichiometry    C2H6O
 Framework group  C1[X(C2H6O)]
 Deg. of freedom    21
 Full point group                 C1      NOp   1
 RotChk:  IX=0 Diff= 4.06D-02
 Largest Abelian subgroup         C1      NOp   1
 Largest concise Abelian subgroup C1      NOp   1
                         Standard orientation:                         
 ---------------------------------------------------------------------
 Center     Atomic      Atomic             Coordinates (Angstroms)
 Number     Number       Type             X           Y           Z
 ---------------------------------------------------------------------
      1          6           0        1.115975   -0.370344    0.006273
      2          1           0        1.538487   -0.614836    0.965371
      3          1           0        1.538637   -0.633005   -0.947891
      4          1           0       -0.337474   -1.247033   -0.007550
      5          6           0        0.194290    0.825762   -0.002212
      6          1           0       -0.034612    1.250998    0.959563
      7          1           0       -0.008474    1.279442   -0.956270
      8          8           0       -1.070636   -0.331546   -0.016064
      9          1           0       -1.993065   -0.115707    0.090920
 ---------------------------------------------------------------------
 Rotational constants (GHZ):          24.2760518          10.8947995           8.4522207
 Leave Link  202 at Mon Jun  1 23:53:42 2020, MaxMem=   805306368 cpu:               0.0 elap:               0.0
 (Enter /home/qslin/g16/l301.exe)
 Standard basis: 6-31G(d) (6D, 7F)
 Ernie: Thresh=  0.10000D-02 Tol=  0.10000D-05 Strict=F.
 There are    57 symmetry adapted cartesian basis functions of A   symmetry.
 There are    57 symmetry adapted basis functions of A   symmetry.
    57 basis functions,   108 primitive gaussians,    57 cartesian basis functions
    13 alpha electrons       13 beta electrons
       nuclear repulsion energy        80.5123302376 Hartrees.
 IExCor=  402 DFT=T Ex+Corr=B3LYP ExCW=0 ScaHFX=  0.200000
 ScaDFX=  0.800000  0.720000  1.000000  0.810000 ScalE2=  1.000000  1.000000
 IRadAn=      5 IRanWt=     -1 IRanGd=            0 ICorTp=0 IEmpDi=141
 NAtoms=    9 NActive=    9 NUniq=    9 SFac= 1.00D+00 NAtFMM=   60 NAOKFM=F Big=F
 Integral buffers will be    131072 words long.
 Raffenetti 2 integral format.
 Two-electron integral symmetry is turned on.
 R6Disp:  Grimme-D3(BJ) Dispersion energy=       -0.0075828960 Hartrees.
 Nuclear repulsion after empirical dispersion term =       80.5047473416 Hartrees.
 Leave Link  301 at Mon Jun  1 23:53:42 2020, MaxMem=   805306368 cpu:               0.1 elap:               0.0
 (Enter /home/qslin/g16/l302.exe)
 NPDir=0 NMtPBC=     1 NCelOv=     1 NCel=       1 NClECP=     1 NCelD=      1
         NCelK=      1 NCelE2=     1 NClLst=     1 CellRange=     0.0.
 One-electron integrals computed using PRISM.
 One-electron integral symmetry used in STVInt
 NBasis=    57 RedAO= T EigKep=  6.96D-03  NBF=    57
 NBsUse=    57 1.00D-06 EigRej= -1.00D+00 NBFU=    57
 Precomputing XC quadrature grid using
 IXCGrd= 4 IRadAn=           5 IRanWt=          -1 IRanGd=           0 AccXCQ= 0.00D+00.
 Generated NRdTot=       0 NPtTot=           0 NUsed=           0 NTot=          32
 NSgBfM=    57    57    57    57    57 MxSgAt=     9 MxSgA2=     9.
 Leave Link  302 at Mon Jun  1 23:53:42 2020, MaxMem=   805306368 cpu:               0.5 elap:               0.1
 (Enter /home/qslin/g16/l303.exe)
 DipDrv:  MaxL=1.
 Leave Link  303 at Mon Jun  1 23:53:42 2020, MaxMem=   805306368 cpu:               0.0 elap:               0.0
 (Enter /home/qslin/g16/l401.exe)
 Initial guess from the checkpoint file:  "EtOH-TS.chk"
 B after Tr=     0.000000    0.000000    0.000000
         Rot=    0.999881    0.001510   -0.000866    0.015343 Ang=   1.77 deg.
 Guess basis will be translated and rotated to current coordinates.
 JPrj=2 DoOrth=T DoCkMO=T.
 Generating alternative initial guess.
 ExpMin= 1.61D-01 ExpMax= 5.48D+03 ExpMxC= 8.25D+02 IAcc=2 IRadAn=         4 AccDes= 0.00D+00
 Harris functional with IExCor=  402 and IRadAn=       4 diagonalized for initial guess.
 HarFok:  IExCor=  402 AccDes= 0.00D+00 IRadAn=         4 IDoV= 1 UseB2=F ITyADJ=14
 ICtDFT=  3500011 ScaDFX=  1.000000  1.000000  1.000000  1.000000
 FoFCou: FMM=F IPFlag=           0 FMFlag=      100000 FMFlg1=           0
         NFxFlg=           0 DoJE=T BraDBF=F KetDBF=T FulRan=T
         wScrn=  0.000000 ICntrl=       500 IOpCl=  0 I1Cent=   200000004 NGrid=           0
         NMat0=    1 NMatS0=      1 NMatT0=    0 NMatD0=    1 NMtDS0=    0 NMtDT0=    0
 Petite list used in FoFCou.
 Harris En= -154.940867452508    
 Leave Link  401 at Mon Jun  1 23:53:42 2020, MaxMem=   805306368 cpu:               1.2 elap:               0.3
 (Enter /home/qslin/g16/l502.exe)
 Keep R1 ints in memory in canonical form, NReq=4886539.
 FoFCou: FMM=F IPFlag=           0 FMFlag=           0 FMFlg1=           0
         NFxFlg=           0 DoJE=F BraDBF=F KetDBF=F FulRan=T
         wScrn=  0.000000 ICntrl=       600 IOpCl=  0 I1Cent=           0 NGrid=           0
         NMat0=    1 NMatS0=   1653 NMatT0=    0 NMatD0=    1 NMtDS0=    0 NMtDT0=    0
 Symmetry not used in FoFCou.
 Two-electron integral symmetry not used.
 Closed shell SCF:
 Using DIIS extrapolation, IDIIS=  1040.
 NGot=   805306368 LenX=   803931623 LenY=   803927933
 Requested convergence on RMS density matrix=1.00D-08 within 128 cycles.
 Requested convergence on MAX density matrix=1.00D-06.
 Requested convergence on             energy=1.00D-06.
 No special actions if energy rises.
 Integral accuracy reduced to 1.0D-05 until final iterations.

 Cycle   1  Pass 0  IDiag  1:
 E= -154.883530853693    
 DIIS: error= 4.39D-03 at cycle   1 NSaved=   1.
 NSaved= 1 IEnMin= 1 EnMin= -154.883530853693     IErMin= 1 ErrMin= 4.39D-03
 ErrMax= 4.39D-03  0.00D+00 EMaxC= 1.00D-01 BMatC= 3.05D-03 BMatP= 3.05D-03
 IDIUse=3 WtCom= 9.56D-01 WtEn= 4.39D-02
 Coeff-Com:  0.100D+01
 Coeff-En:   0.100D+01
 Coeff:      0.100D+01
 Gap=     1.864 Goal=   None    Shift=    0.000
 GapD=    1.864 DampG=2.000 DampE=1.000 DampFc=2.0000 IDamp=-1.
 RMSDP=2.08D-03 MaxDP=3.49D-02              OVMax= 2.81D-02

 Cycle   2  Pass 0  IDiag  1:
 E= -154.887632997613     Delta-E=       -0.004102143920 Rises=F Damp=F
 DIIS: error= 3.56D-03 at cycle   2 NSaved=   2.
 NSaved= 2 IEnMin= 2 EnMin= -154.887632997613     IErMin= 2 ErrMin= 3.56D-03
 ErrMax= 3.56D-03  0.00D+00 EMaxC= 1.00D-01 BMatC= 8.51D-04 BMatP= 3.05D-03
 IDIUse=3 WtCom= 9.64D-01 WtEn= 3.56D-02
 Coeff-Com:  0.263D+00 0.737D+00
 Coeff-En:   0.000D+00 0.100D+01
 Coeff:      0.253D+00 0.747D+00
 Gap=     0.209 Goal=   None    Shift=    0.000
 RMSDP=1.15D-03 MaxDP=1.96D-02 DE=-4.10D-03 OVMax= 2.50D-02

 Cycle   3  Pass 0  IDiag  1:
 E= -154.887407703415     Delta-E=        0.000225294198 Rises=F Damp=F
 DIIS: error= 3.94D-03 at cycle   3 NSaved=   3.
 NSaved= 3 IEnMin= 2 EnMin= -154.887632997613     IErMin= 2 ErrMin= 3.56D-03
 ErrMax= 3.94D-03  0.00D+00 EMaxC= 1.00D-01 BMatC= 1.13D-03 BMatP= 8.51D-04
 IDIUse=3 WtCom= 1.37D-01 WtEn= 8.63D-01
 Coeff-Com: -0.298D-01 0.544D+00 0.486D+00
 Coeff-En:   0.000D+00 0.549D+00 0.451D+00
 Coeff:     -0.409D-02 0.548D+00 0.456D+00
 Gap=     0.212 Goal=   None    Shift=    0.000
 RMSDP=6.02D-04 MaxDP=9.45D-03 DE= 2.25D-04 OVMax= 1.34D-02

 Cycle   4  Pass 0  IDiag  1:
 E= -154.888434041270     Delta-E=       -0.001026337854 Rises=F Damp=F
 DIIS: error= 2.64D-04 at cycle   4 NSaved=   4.
 NSaved= 4 IEnMin= 4 EnMin= -154.888434041270     IErMin= 4 ErrMin= 2.64D-04
 ErrMax= 2.64D-04  0.00D+00 EMaxC= 1.00D-01 BMatC= 5.90D-06 BMatP= 8.51D-04
 IDIUse=3 WtCom= 9.97D-01 WtEn= 2.64D-03
 Coeff-Com: -0.192D-01 0.203D+00 0.178D+00 0.638D+00
 Coeff-En:   0.000D+00 0.000D+00 0.000D+00 0.100D+01
 Coeff:     -0.191D-01 0.203D+00 0.178D+00 0.639D+00
 Gap=     0.212 Goal=   None    Shift=    0.000
 RMSDP=7.85D-05 MaxDP=1.75D-03 DE=-1.03D-03 OVMax= 1.29D-03

 Cycle   5  Pass 0  IDiag  1:
 E= -154.888438941623     Delta-E=       -0.000004900354 Rises=F Damp=F
 DIIS: error= 1.47D-04 at cycle   5 NSaved=   5.
 NSaved= 5 IEnMin= 5 EnMin= -154.888438941623     IErMin= 5 ErrMin= 1.47D-04
 ErrMax= 1.47D-04  0.00D+00 EMaxC= 1.00D-01 BMatC= 8.57D-07 BMatP= 5.90D-06
 IDIUse=3 WtCom= 9.99D-01 WtEn= 1.47D-03
 Coeff-Com: -0.590D-02 0.428D-01 0.408D-01 0.305D+00 0.618D+00
 Coeff-En:   0.000D+00 0.000D+00 0.000D+00 0.480D-01 0.952D+00
 Coeff:     -0.589D-02 0.427D-01 0.407D-01 0.304D+00 0.618D+00
 Gap=     0.212 Goal=   None    Shift=    0.000
 RMSDP=2.68D-05 MaxDP=6.33D-04 DE=-4.90D-06 OVMax= 4.81D-04

 Cycle   6  Pass 0  IDiag  1:
 E= -154.888439834467     Delta-E=       -0.000000892844 Rises=F Damp=F
 DIIS: error= 1.71D-05 at cycle   6 NSaved=   6.
 NSaved= 6 IEnMin= 6 EnMin= -154.888439834467     IErMin= 6 ErrMin= 1.71D-05
 ErrMax= 1.71D-05  0.00D+00 EMaxC= 1.00D-01 BMatC= 2.89D-08 BMatP= 8.57D-07
 IDIUse=1 WtCom= 1.00D+00 WtEn= 0.00D+00
 Coeff-Com: -0.246D-03-0.281D-02-0.157D-02 0.502D-01 0.199D+00 0.755D+00
 Coeff:     -0.246D-03-0.281D-02-0.157D-02 0.502D-01 0.199D+00 0.755D+00
 Gap=     0.212 Goal=   None    Shift=    0.000
 RMSDP=5.19D-06 MaxDP=6.50D-05 DE=-8.93D-07 OVMax= 9.50D-05

 Initial convergence to 1.0D-05 achieved.  Increase integral accuracy.
 Cycle   7  Pass 1  IDiag  1:
 E= -154.888442053648     Delta-E=       -0.000002219181 Rises=F Damp=F
 DIIS: error= 1.21D-05 at cycle   1 NSaved=   1.
 NSaved= 1 IEnMin= 1 EnMin= -154.888442053648     IErMin= 1 ErrMin= 1.21D-05
 ErrMax= 1.21D-05  0.00D+00 EMaxC= 1.00D-01 BMatC= 9.44D-09 BMatP= 9.44D-09
 IDIUse=1 WtCom= 1.00D+00 WtEn= 0.00D+00
 Coeff-Com:  0.100D+01
 Coeff:      0.100D+01
 Gap=     0.212 Goal=   None    Shift=    0.000
 RMSDP=5.19D-06 MaxDP=6.50D-05 DE=-2.22D-06 OVMax= 1.02D-04

 Cycle   8  Pass 1  IDiag  1:
 E= -154.888442039824     Delta-E=        0.000000013824 Rises=F Damp=F
 DIIS: error= 1.89D-05 at cycle   2 NSaved=   2.
 NSaved= 2 IEnMin= 1 EnMin= -154.888442053648     IErMin= 1 ErrMin= 1.21D-05
 ErrMax= 1.89D-05  0.00D+00 EMaxC= 1.00D-01 BMatC= 2.39D-08 BMatP= 9.44D-09
 IDIUse=1 WtCom= 1.00D+00 WtEn= 0.00D+00
 Coeff-Com:  0.615D+00 0.385D+00
 Coeff:      0.615D+00 0.385D+00
 Gap=     0.212 Goal=   None    Shift=    0.000
 RMSDP=2.66D-06 MaxDP=4.46D-05 DE= 1.38D-08 OVMax= 6.14D-05

 Cycle   9  Pass 1  IDiag  1:
 E= -154.888442063228     Delta-E=       -0.000000023404 Rises=F Damp=F
 DIIS: error= 9.85D-07 at cycle   3 NSaved=   3.
 NSaved= 3 IEnMin= 3 EnMin= -154.888442063228     IErMin= 3 ErrMin= 9.85D-07
 ErrMax= 9.85D-07  0.00D+00 EMaxC= 1.00D-01 BMatC= 6.08D-11 BMatP= 9.44D-09
 IDIUse=1 WtCom= 1.00D+00 WtEn= 0.00D+00
 Coeff-Com:  0.198D+00 0.133D+00 0.668D+00
 Coeff:      0.198D+00 0.133D+00 0.668D+00
 Gap=     0.212 Goal=   None    Shift=    0.000
 RMSDP=2.57D-07 MaxDP=5.37D-06 DE=-2.34D-08 OVMax= 4.02D-06

 Cycle  10  Pass 1  IDiag  1:
 E= -154.888442063280     Delta-E=       -0.000000000053 Rises=F Damp=F
 DIIS: error= 5.18D-07 at cycle   4 NSaved=   4.
 NSaved= 4 IEnMin= 4 EnMin= -154.888442063280     IErMin= 4 ErrMin= 5.18D-07
 ErrMax= 5.18D-07  0.00D+00 EMaxC= 1.00D-01 BMatC= 1.28D-11 BMatP= 6.08D-11
 IDIUse=1 WtCom= 1.00D+00 WtEn= 0.00D+00
 Coeff-Com:  0.145D-01 0.122D-01 0.315D+00 0.658D+00
 Coeff:      0.145D-01 0.122D-01 0.315D+00 0.658D+00
 Gap=     0.212 Goal=   None    Shift=    0.000
 RMSDP=8.90D-08 MaxDP=9.26D-07 DE=-5.28D-11 OVMax= 2.00D-06

 Cycle  11  Pass 1  IDiag  1:
 E= -154.888442063289     Delta-E=       -0.000000000009 Rises=F Damp=F
 DIIS: error= 1.79D-07 at cycle   5 NSaved=   5.
 NSaved= 5 IEnMin= 5 EnMin= -154.888442063289     IErMin= 5 ErrMin= 1.79D-07
 ErrMax= 1.79D-07  0.00D+00 EMaxC= 1.00D-01 BMatC= 2.20D-12 BMatP= 1.28D-11
 IDIUse=1 WtCom= 1.00D+00 WtEn= 0.00D+00
 Coeff-Com: -0.154D-01-0.101D-01 0.918D-01 0.364D+00 0.569D+00
 Coeff:     -0.154D-01-0.101D-01 0.918D-01 0.364D+00 0.569D+00
 Gap=     0.212 Goal=   None    Shift=    0.000
 RMSDP=3.44D-08 MaxDP=4.97D-07 DE=-8.87D-12 OVMax= 6.80D-07

 Cycle  12  Pass 1  IDiag  1:
 E= -154.888442063291     Delta-E=       -0.000000000002 Rises=F Damp=F
 DIIS: error= 6.03D-08 at cycle   6 NSaved=   6.
 NSaved= 6 IEnMin= 6 EnMin= -154.888442063291     IErMin= 6 ErrMin= 6.03D-08
 ErrMax= 6.03D-08  0.00D+00 EMaxC= 1.00D-01 BMatC= 2.59D-13 BMatP= 2.20D-12
 IDIUse=1 WtCom= 1.00D+00 WtEn= 0.00D+00
 Coeff-Com: -0.124D-01-0.873D-02 0.185D-01 0.143D+00 0.318D+00 0.542D+00
 Coeff:     -0.124D-01-0.873D-02 0.185D-01 0.143D+00 0.318D+00 0.542D+00
 Gap=     0.212 Goal=   None    Shift=    0.000
 RMSDP=1.40D-08 MaxDP=2.80D-07 DE=-1.76D-12 OVMax= 2.77D-07

 Cycle  13  Pass 1  IDiag  1:
 E= -154.888442063292     Delta-E=       -0.000000000001 Rises=F Damp=F
 DIIS: error= 1.63D-08 at cycle   7 NSaved=   7.
 NSaved= 7 IEnMin= 7 EnMin= -154.888442063292     IErMin= 7 ErrMin= 1.63D-08
 ErrMax= 1.63D-08  0.00D+00 EMaxC= 1.00D-01 BMatC= 1.70D-14 BMatP= 2.59D-13
 IDIUse=1 WtCom= 1.00D+00 WtEn= 0.00D+00
 Coeff-Com: -0.281D-02-0.218D-02-0.197D-03 0.221D-01 0.532D-01 0.236D+00
 Coeff-Com:  0.694D+00
 Coeff:     -0.281D-02-0.218D-02-0.197D-03 0.221D-01 0.532D-01 0.236D+00
 Coeff:      0.694D+00
 Gap=     0.212 Goal=   None    Shift=    0.000
 RMSDP=4.30D-09 MaxDP=7.43D-08 DE=-6.54D-13 OVMax= 1.03D-07

 SCF Done:  E(RB3LYP) =  -154.888442063     A.U. after   13 cycles
            NFock= 13  Conv=0.43D-08     -V/T= 2.0086
 KE= 1.535721449849D+02 PE=-5.228602341183D+02 EE= 1.338948997285D+02
 Leave Link  502 at Mon Jun  1 23:53:47 2020, MaxMem=   805306368 cpu:              17.8 elap:               4.5
 (Enter /home/qslin/g16/l701.exe)
 ... and contract with generalized density number  0.
 Compute integral first derivatives.
 R6Disp: Adding Grimme-D3(BJ) dispersion energy 1st derivatives to the gradient.
 Leave Link  701 at Mon Jun  1 23:53:47 2020, MaxMem=   805306368 cpu:               0.3 elap:               0.1
 (Enter /home/qslin/g16/l702.exe)
 L702 exits ... SP integral derivatives will be done elsewhere.
 Leave Link  702 at Mon Jun  1 23:53:47 2020, MaxMem=   805306368 cpu:               0.1 elap:               0.0
 (Enter /home/qslin/g16/l703.exe)
 Integral derivatives from FoFJK, PRISM(SPDF).
 Compute integral first derivatives, UseDBF=F ICtDFT=           0.
 Calling FoFJK, ICntrl=      2127 FMM=F ISym2X=0 I1Cent= 0 IOpClX= 0 NMat=1 NMatS=1 NMatT=0.
 FoFJK:  IHMeth= 1 ICntrl=    2127 DoSepK=F KAlg= 0 I1Cent=           0 FoldK=F
 IRaf=         0 NMat=       1 IRICut=       1 DoRegI=T DoRafI=F ISym2E= 0 IDoP0=0 IntGTp=1.
 FoFCou: FMM=F IPFlag=           0 FMFlag=      100000 FMFlg1=         800
         NFxFlg=           0 DoJE=F BraDBF=F KetDBF=F FulRan=T
         wScrn=  0.000000 ICntrl=      2127 IOpCl=  0 I1Cent=           0 NGrid=           0
         NMat0=    1 NMatS0=      1 NMatT0=    0 NMatD0=    1 NMtDS0=    0 NMtDT0=    0
 Symmetry not used in FoFCou.
 Leave Link  703 at Mon Jun  1 23:53:48 2020, MaxMem=   805306368 cpu:               4.7 elap:               1.2
 (Enter /home/qslin/g16/l716.exe)
 Dipole        =-6.83058291D-01 3.74432455D-01 6.51532053D-02
 ***** Axes restored to original set *****
 -------------------------------------------------------------------
 Center     Atomic                   Forces (Hartrees/Bohr)
 Number     Number              X              Y              Z
 -------------------------------------------------------------------
      1        6           0.016573180    0.021858477    0.027485018
      2        1           0.003111450   -0.002451914   -0.013479516
      3        1           0.005119764   -0.002793497   -0.014148411
      4        1           0.026876787    0.008693405   -0.008765817
      5        6          -0.066106236   -0.055013753   -0.042741954
      6        1           0.014643035    0.009934358    0.001521137
      7        1           0.013482289    0.007621964    0.002828367
      8        8           0.003366200    0.011175842    0.002263653
      9        1          -0.017066468    0.000975116    0.045037522
 -------------------------------------------------------------------
 Cartesian Forces:  Max     0.066106236 RMS     0.023619601
 Leave Link  716 at Mon Jun  1 23:53:48 2020, MaxMem=   805306368 cpu:               0.0 elap:               0.0
 (Enter /home/qslin/g16/l103.exe)

 GradGradGradGradGradGradGradGradGradGradGradGradGradGradGradGradGradGrad
 Berny optimization.
 FormGI is forming the generalized inverse of G from B-inverse, IUseBI=4.
 Internal  Forces:  Max     0.046231559 RMS     0.013535399
 Search for a saddle point.
 Step number   2 out of a maximum of   55
 All quantities printed in internal units (Hartrees-Bohrs-Radians)
 Swapping is turned off.
 Update second derivatives using D2CorX and points    1    2
 ITU=  0  0
     Eigenvalues ---   -0.13718  -0.00884   0.00423   0.00618   0.01025
     Eigenvalues ---    0.01989   0.03485   0.04545   0.04864   0.05493
     Eigenvalues ---    0.06332   0.08682   0.09570   0.09923   0.16044
     Eigenvalues ---    0.24370   0.39744   0.39831   0.40049   0.40281
     Eigenvalues ---    0.64704
 Eigenvectors required to have negative eigenvalues:
                          R3        R5        R8        R4        A15
   1                    0.51965  -0.49898   0.49767  -0.29198  -0.24209
                          A16       D7        D5        D10       D11
   1                    0.18899  -0.10897   0.10248  -0.06329   0.06229
 Eigenvalue     2 is  -8.84D-03 should be greater than     0.000000 Eigenvector:
                          D14       D16       D18       D20       D19
   1                   -0.59436   0.40597   0.38471   0.37724  -0.16825
                          D17       D3        D2        D15       D13
   1                   -0.16078  -0.14229  -0.14126  -0.13952   0.12479
 RFO step:  Lambda0=3.157976655D-04 Lambda=-4.25079537D-02.
 Linear search not attempted -- option 19 set.
 Maximum step size (   0.300) exceeded in Quadratic search.
    -- Step size scaled by   0.559
 Iteration  1 RMS(Cart)=  0.04867440 RMS(Int)=  0.00809952
 Iteration  2 RMS(Cart)=  0.00562080 RMS(Int)=  0.00480882
 Iteration  3 RMS(Cart)=  0.00006541 RMS(Int)=  0.00480818
 Iteration  4 RMS(Cart)=  0.00000041 RMS(Int)=  0.00480818
 ITry= 1 IFail=0 DXMaxC= 1.38D-01 DCOld= 1.00D+10 DXMaxT= 3.00D-01 DXLimC= 3.00D+00 Rises=F
 Variable       Old X    -DE/DX   Delta X   Delta X   Delta X     New X
                                 (Linear)    (Quad)   (Total)
    R1        2.03368   0.00546   0.00000   0.00994   0.00994   2.04362
    R2        2.03360   0.00570   0.00000   0.00946   0.00946   2.04306
    R3        3.20769   0.00253   0.00000  -0.10963  -0.11251   3.09518
    R4        2.85358  -0.03343   0.00000  -0.10986  -0.11347   2.74011
    R5        2.21648   0.00600   0.00000   0.01859   0.02153   2.23801
    R6        2.03375   0.00562   0.00000   0.00955   0.00955   2.04330
    R7        2.03281   0.00560   0.00000   0.00844   0.00844   2.04125
    R8        3.23998   0.00429   0.00000   0.05290   0.05661   3.29659
    R9        1.80160   0.04623   0.00000   0.03218   0.03218   1.83379
    A1        2.19020  -0.01093   0.00000  -0.06373  -0.06435   2.12585
    A2        1.79886   0.00848   0.00000   0.01945   0.02123   1.82009
    A3        2.00931   0.00467   0.00000   0.01748   0.01697   2.02628
    A4        1.77524   0.00972   0.00000   0.05122   0.05287   1.82811
    A5        2.01316   0.00531   0.00000   0.02960   0.03091   2.04407
    A6        1.45697  -0.01627   0.00000  -0.02210  -0.02723   1.42974
    A7        1.70335   0.02318   0.00000   0.10558   0.11006   1.81341
    A8        2.02392   0.00310   0.00000   0.01493   0.01023   2.03415
    A9        2.04216   0.00196   0.00000   0.03331   0.03579   2.07795
   A10        1.48639   0.02838   0.00000   0.05799   0.05902   1.54541
   A11        2.19674  -0.00818   0.00000  -0.06244  -0.06239   2.13435
   A12        1.68808  -0.00412   0.00000   0.02577   0.02429   1.71237
   A13        1.70969  -0.00612   0.00000  -0.00604  -0.00816   1.70153
   A14        1.63648  -0.03530   0.00000  -0.14162  -0.14523   1.49124
   A15        2.46656   0.00561   0.00000  -0.00577  -0.01564   2.45092
   A16        2.16531   0.02946   0.00000   0.10075   0.07857   2.24388
    D1        1.99716   0.00245   0.00000   0.07930   0.07919   2.07635
    D2       -1.99869  -0.00113   0.00000   0.04145   0.04330  -1.95538
    D3        0.00151   0.00113   0.00000   0.06623   0.06803   0.06954
    D4       -0.11055   0.00632   0.00000  -0.00012   0.00088  -0.10967
    D5        2.82845  -0.00999   0.00000  -0.07758  -0.07762   2.75083
    D6       -1.77087  -0.00262   0.00000  -0.05608  -0.05520  -1.82607
    D7       -2.88027   0.01126   0.00000   0.05645   0.05624  -2.82403
    D8        0.05872  -0.00505   0.00000  -0.02101  -0.02225   0.03647
    D9        1.74259   0.00232   0.00000   0.00048   0.00017   1.74275
   D10        1.65930   0.00818   0.00000   0.01092   0.01128   1.67058
   D11       -1.68489  -0.00813   0.00000  -0.06654  -0.06721  -1.75211
   D12       -0.00103  -0.00077   0.00000  -0.04505  -0.04479  -0.04582
   D13       -0.00133  -0.00097   0.00000  -0.05799  -0.05607  -0.05740
   D14       -2.94456  -0.00095   0.00000   0.24472   0.22942  -2.71514
   D15        0.00148   0.00109   0.00000   0.06483   0.06148   0.06296
   D16        2.99387  -0.00086   0.00000  -0.17289  -0.17805   2.81583
   D17       -2.01648  -0.00474   0.00000   0.04553   0.04412  -1.97236
   D18        0.97591  -0.00669   0.00000  -0.19219  -0.19541   0.78051
   D19        2.03717   0.00646   0.00000   0.10523   0.10488   2.14205
   D20       -1.25363   0.00451   0.00000  -0.13248  -0.13464  -1.38827
         Item               Value     Threshold  Converged?
 Maximum Force            0.046232     0.000450     NO 
 RMS     Force            0.013535     0.000300     NO 
 Maximum Displacement     0.138097     0.001800     NO 
 RMS     Displacement     0.048292     0.001200     NO 
 Predicted change in Energy=-2.025229D-02
 Lowest energy point so far.  Saving SCF results.
 GradGradGradGradGradGradGradGradGradGradGradGradGradGradGradGradGradGrad

 Leave Link  103 at Mon Jun  1 23:53:49 2020, MaxMem=   805306368 cpu:               0.1 elap:               0.1
 (Enter /home/qslin/g16/l202.exe)
                          Input orientation:                          
 ---------------------------------------------------------------------
 Center     Atomic      Atomic             Coordinates (Angstroms)
 Number     Number       Type             X           Y           Z
 ---------------------------------------------------------------------
      1          6           0       -2.155366   -1.720332   -0.064630
      2          1           0       -1.738523   -2.699654   -0.256137
      3          1           0       -2.650796   -1.150716   -0.838550
      4          1           0       -3.313441   -1.987421    1.062420
      5          6           0       -1.556000   -0.973819    1.024400
      6          1           0       -0.818334   -1.494810    1.619005
      7          1           0       -1.654763    0.101727    1.040014
      8          8           0       -2.959122   -1.345110    1.992187
      9          1           0       -3.054928   -1.309981    2.957204
 ---------------------------------------------------------------------
                    Distance matrix (angstroms):
                    1          2          3          4          5
     1  C    0.000000
     2  H    1.081437   0.000000
     3  H    1.081140   1.889618   0.000000
     4  H    1.637900   2.173990   2.180105   0.000000
     5  C    1.450002   2.156756   2.168053   2.029146   0.000000
     6  H    2.161745   2.411338   3.084784   2.603461   1.081266
     7  H    2.188776   3.087840   2.467731   2.667630   1.080184
     8  O    2.239935   2.894755   2.854106   1.184302   1.744482
     9  H    3.179478   3.740277   3.820528   2.028783   2.468911
                    6          7          8          9
     6  H    0.000000
     7  H    1.893086   0.000000
     8  O    2.178221   2.168253   0.000000
     9  H    2.612909   2.762064   0.970397   0.000000
 Stoichiometry    C2H6O
 Framework group  C1[X(C2H6O)]
 Deg. of freedom    21
 Full point group                 C1      NOp   1
 RotChk:  IX=0 Diff= 4.00D-02
 Largest Abelian subgroup         C1      NOp   1
 Largest concise Abelian subgroup C1      NOp   1
                         Standard orientation:                         
 ---------------------------------------------------------------------
 Center     Atomic      Atomic             Coordinates (Angstroms)
 Number     Number       Type             X           Y           Z
 ---------------------------------------------------------------------
      1          6           0        1.112645   -0.379592    0.006052
      2          1           0        1.575889   -0.619950    0.953226
      3          1           0        1.557593   -0.669556   -0.935652
      4          1           0       -0.323837   -1.165397    0.047822
      5          6           0        0.244602    0.781840   -0.002939
      6          1           0        0.049419    1.246716    0.953581
      7          1           0        0.050509    1.284511   -0.939127
      8          8           0       -1.125392   -0.297620   -0.036111
      9          1           0       -2.049919   -0.108852    0.190360
 ---------------------------------------------------------------------
 Rotational constants (GHZ):          25.8728977          10.3502790           8.2790538
 Leave Link  202 at Mon Jun  1 23:53:49 2020, MaxMem=   805306368 cpu:               0.1 elap:               0.0
 (Enter /home/qslin/g16/l301.exe)
 Standard basis: 6-31G(d) (6D, 7F)
 Ernie: Thresh=  0.10000D-02 Tol=  0.10000D-05 Strict=F.
 There are    57 symmetry adapted cartesian basis functions of A   symmetry.
 There are    57 symmetry adapted basis functions of A   symmetry.
    57 basis functions,   108 primitive gaussians,    57 cartesian basis functions
    13 alpha electrons       13 beta electrons
       nuclear repulsion energy        80.3688353908 Hartrees.
[...]
                    6          7          8          9
     6  H    0.000000
     7  H    1.825771   0.000000
     8  O    2.319721   2.257271   0.000000
     9  H    2.414633   2.958687   0.977474   0.000000
 Stoichiometry    C2H6O
 Framework group  C1[X(C2H6O)]
 Deg. of freedom    21
 Full point group                 C1      NOp   1
 RotChk:  IX=0 Diff= 1.39D-15
 Largest Abelian subgroup         C1      NOp   1
 Largest concise Abelian subgroup C1      NOp   1
                         Standard orientation:                         
 ---------------------------------------------------------------------
 Center     Atomic      Atomic             Coordinates (Angstroms)
 Number     Number       Type             X           Y           Z
 ---------------------------------------------------------------------
      1          6           0        1.136219   -0.409105    0.015907
      2          1           0        1.626408   -0.678453    0.948698
      3          1           0        1.685357   -0.649942   -0.890944
      4          1           0       -0.215351   -0.922283   -0.045169
      5          6           0        0.304087    0.741486    0.006139
      6          1           0        0.097142    1.294856    0.919774
      7          1           0        0.139265    1.307459   -0.905468
      8          8           0       -1.280758   -0.258653   -0.114202
      9          1           0       -1.728596   -0.276704    0.754457
 ---------------------------------------------------------------------
 Rotational constants (GHZ):          26.5982866           9.0900319           7.6169747
 Leave Link  202 at Mon Jun  1 23:56:50 2020, MaxMem=   805306368 cpu:               0.0 elap:               0.0
 (Enter /home/qslin/g16/l301.exe)
 Standard basis: 6-311G(d,p) (5D, 7F)
 Ernie: Thresh=  0.10000D-02 Tol=  0.10000D-05 Strict=F.
 There are    93 symmetry adapted cartesian basis functions of A   symmetry.
 There are    90 symmetry adapted basis functions of A   symmetry.
    90 basis functions,   144 primitive gaussians,    93 cartesian basis functions
    13 alpha electrons       13 beta electrons
       nuclear repulsion energy        78.7457075092 Hartrees.
 IExCor= 4336 DFT=T Ex+Corr=M062X ExCW=0 ScaHFX=  0.540000
 ScaDFX=  1.000000  1.000000  1.000000  1.000000 ScalE2=  1.000000  1.000000
 IRadAn=      5 IRanWt=     -1 IRanGd=            0 ICorTp=0 IEmpDi=131
 NAtoms=    9 NActive=    9 NUniq=    9 SFac= 1.00D+00 NAtFMM=   60 NAOKFM=F Big=F
 Integral buffers will be    131072 words long.
 Raffenetti 2 integral format.
 Two-electron integral symmetry is turned on.
 R6Disp:  Grimme-D3 Dispersion energy=       -0.0000275007 Hartrees.
 Nuclear repulsion after empirical dispersion term =       78.7456800086 Hartrees.
 Leave Link  301 at Mon Jun  1 23:56:50 2020, MaxMem=   805306368 cpu:               0.1 elap:               0.0
 (Enter /home/qslin/g16/l302.exe)
 NPDir=0 NMtPBC=     1 NCelOv=     1 NCel=       1 NClECP=     1 NCelD=      1
         NCelK=      1 NCelE2=     1 NClLst=     1 CellRange=     0.0.
 One-electron integrals computed using PRISM.
 One-electron integral symmetry used in STVInt
 NBasis=    90 RedAO= T EigKep=  2.69D-03  NBF=    90
 NBsUse=    90 1.00D-06 EigRej= -1.00D+00 NBFU=    90
 Precomputing XC quadrature grid using
 IXCGrd= 4 IRadAn=           5 IRanWt=          -1 IRanGd=           0 AccXCQ= 0.00D+00.
 Generated NRdTot=       0 NPtTot=           0 NUsed=           0 NTot=          32
 NSgBfM=    93    93    93    93    93 MxSgAt=     9 MxSgA2=     9.
 Leave Link  302 at Mon Jun  1 23:56:50 2020, MaxMem=   805306368 cpu:               1.0 elap:               0.3
 (Enter /home/qslin/g16/l303.exe)
 DipDrv:  MaxL=1.
 Leave Link  303 at Mon Jun  1 23:56:50 2020, MaxMem=   805306368 cpu:               0.1 elap:               0.0
 (Enter /home/qslin/g16/l401.exe)
 Initial guess from the checkpoint file:  "EtOH-TS.chk"
 B after Tr=     0.000000   -0.000000   -0.000000
         Rot=    1.000000    0.000000   -0.000000   -0.000000 Ang=   0.00 deg.
 Guess basis will be translated and rotated to current coordinates.
 JPrj=2 DoOrth=T DoCkMO=T.
 Leave Link  401 at Mon Jun  1 23:56:51 2020, MaxMem=   805306368 cpu:               0.3 elap:               0.1
 (Enter /home/qslin/g16/l502.exe)
 Keep R1 ints in memory in canonical form, NReq=12058754.
 FoFCou: FMM=F IPFlag=           0 FMFlag=           0 FMFlg1=           0
         NFxFlg=           0 DoJE=F BraDBF=F KetDBF=F FulRan=T
         wScrn=  0.000000 ICntrl=       600 IOpCl=  0 I1Cent=           0 NGrid=           0
         NMat0=    1 NMatS0=   4095 NMatT0=    0 NMatD0=    1 NMtDS0=    0 NMtDT0=    0
 Symmetry not used in FoFCou.
 Two-electron integral symmetry not used.
 Closed shell SCF:
 Using DIIS extrapolation, IDIIS=  1040.
 NGot=   805306368 LenX=   796900814 LenY=   796891724
 Requested convergence on RMS density matrix=1.00D-08 within 128 cycles.
 Requested convergence on MAX density matrix=1.00D-06.
 Requested convergence on             energy=1.00D-06.
 No special actions if energy rises.

 Cycle   1  Pass 1  IDiag  1:
 E= -154.861393964405    
 DIIS: error= 2.86D-02 at cycle   1 NSaved=   1.
 NSaved= 1 IEnMin= 1 EnMin= -154.861393964405     IErMin= 1 ErrMin= 2.86D-02
 ErrMax= 2.86D-02  0.00D+00 EMaxC= 1.00D-01 BMatC= 7.27D-02 BMatP= 7.27D-02
 IDIUse=3 WtCom= 7.14D-01 WtEn= 2.86D-01
 Coeff-Com:  0.100D+01
 Coeff-En:   0.100D+01
 Coeff:      0.100D+01
 Gap=     0.689 Goal=   None    Shift=    0.000
 GapD=    0.689 DampG=2.000 DampE=0.500 DampFc=1.0000 IDamp=-1.
 RMSDP=2.33D-03 MaxDP=4.93D-02              OVMax= 3.24D-02

 Cycle   2  Pass 1  IDiag  1:
 E= -154.890835180175     Delta-E=       -0.029441215770 Rises=F Damp=F
 DIIS: error= 2.46D-03 at cycle   2 NSaved=   2.
 NSaved= 2 IEnMin= 2 EnMin= -154.890835180175     IErMin= 2 ErrMin= 2.46D-03
 ErrMax= 2.46D-03  0.00D+00 EMaxC= 1.00D-01 BMatC= 4.16D-04 BMatP= 7.27D-02
 IDIUse=3 WtCom= 9.75D-01 WtEn= 2.46D-02
 Coeff-Com: -0.211D-01 0.102D+01
 Coeff-En:   0.000D+00 0.100D+01
 Coeff:     -0.205D-01 0.102D+01
 Gap=     0.306 Goal=   None    Shift=    0.000
 RMSDP=3.33D-04 MaxDP=8.53D-03 DE=-2.94D-02 OVMax= 7.59D-03

 Cycle   3  Pass 1  IDiag  1:
 E= -154.891121489492     Delta-E=       -0.000286309317 Rises=F Damp=F
 DIIS: error= 1.59D-03 at cycle   3 NSaved=   3.
 NSaved= 3 IEnMin= 3 EnMin= -154.891121489492     IErMin= 3 ErrMin= 1.59D-03
 ErrMax= 1.59D-03  0.00D+00 EMaxC= 1.00D-01 BMatC= 2.00D-04 BMatP= 4.16D-04
 IDIUse=3 WtCom= 9.84D-01 WtEn= 1.59D-02
 Coeff-Com: -0.113D-01 0.411D+00 0.601D+00
 Coeff-En:   0.000D+00 0.233D-01 0.977D+00
 Coeff:     -0.112D-01 0.405D+00 0.607D+00
 Gap=     0.307 Goal=   None    Shift=    0.000
 RMSDP=1.32D-04 MaxDP=2.75D-03 DE=-2.86D-04 OVMax= 4.08D-03

 Cycle   4  Pass 1  IDiag  1:
 E= -154.891290128154     Delta-E=       -0.000168638662 Rises=F Damp=F
 DIIS: error= 2.60D-04 at cycle   4 NSaved=   4.
 NSaved= 4 IEnMin= 4 EnMin= -154.891290128154     IErMin= 4 ErrMin= 2.60D-04
 ErrMax= 2.60D-04  0.00D+00 EMaxC= 1.00D-01 BMatC= 1.00D-05 BMatP= 2.00D-04
 IDIUse=3 WtCom= 9.97D-01 WtEn= 2.60D-03
 Coeff-Com: -0.169D-02-0.204D-02 0.163D+00 0.841D+00
 Coeff-En:   0.000D+00 0.000D+00 0.000D+00 0.100D+01
 Coeff:     -0.168D-02-0.204D-02 0.163D+00 0.841D+00
 Gap=     0.307 Goal=   None    Shift=    0.000
 RMSDP=3.39D-05 MaxDP=7.42D-04 DE=-1.69D-04 OVMax= 1.34D-03

 Cycle   5  Pass 1  IDiag  1:
 E= -154.891296621994     Delta-E=       -0.000006493840 Rises=F Damp=F
 DIIS: error= 1.89D-04 at cycle   5 NSaved=   5.
 NSaved= 5 IEnMin= 5 EnMin= -154.891296621994     IErMin= 5 ErrMin= 1.89D-04
 ErrMax= 1.89D-04  0.00D+00 EMaxC= 1.00D-01 BMatC= 3.21D-06 BMatP= 1.00D-05
 IDIUse=3 WtCom= 9.98D-01 WtEn= 1.89D-03
 Coeff-Com: -0.605D-03-0.159D-01 0.661D-01 0.485D+00 0.465D+00
 Coeff-En:   0.000D+00 0.000D+00 0.000D+00 0.667D-01 0.933D+00
 Coeff:     -0.604D-03-0.159D-01 0.660D-01 0.484D+00 0.466D+00
 Gap=     0.306 Goal=   None    Shift=    0.000
 RMSDP=1.28D-05 MaxDP=2.56D-04 DE=-6.49D-06 OVMax= 5.60D-04

 Cycle   6  Pass 1  IDiag  1:
 E= -154.891299197157     Delta-E=       -0.000002575163 Rises=F Damp=F
 DIIS: error= 3.13D-05 at cycle   6 NSaved=   6.
 NSaved= 6 IEnMin= 6 EnMin= -154.891299197157     IErMin= 6 ErrMin= 3.13D-05
 ErrMax= 3.13D-05  0.00D+00 EMaxC= 1.00D-01 BMatC= 5.64D-08 BMatP= 3.21D-06
 IDIUse=1 WtCom= 1.00D+00 WtEn= 0.00D+00
 Coeff-Com:  0.108D-03-0.244D-02-0.120D-01-0.412D-01 0.756D-01 0.980D+00
 Coeff:      0.108D-03-0.244D-02-0.120D-01-0.412D-01 0.756D-01 0.980D+00
 Gap=     0.307 Goal=   None    Shift=    0.000
 RMSDP=4.31D-06 MaxDP=8.41D-05 DE=-2.58D-06 OVMax= 1.84D-04

 Cycle   7  Pass 1  IDiag  1:
 E= -154.891299286945     Delta-E=       -0.000000089788 Rises=F Damp=F
 DIIS: error= 1.50D-05 at cycle   7 NSaved=   7.
 NSaved= 7 IEnMin= 7 EnMin= -154.891299286945     IErMin= 7 ErrMin= 1.50D-05
 ErrMax= 1.50D-05  0.00D+00 EMaxC= 1.00D-01 BMatC= 1.16D-08 BMatP= 5.64D-08
 IDIUse=1 WtCom= 1.00D+00 WtEn= 0.00D+00
 Coeff-Com:  0.856D-04-0.523D-03-0.851D-02-0.427D-01 0.918D-02 0.419D+00
 Coeff-Com:  0.624D+00
 Coeff:      0.856D-04-0.523D-03-0.851D-02-0.427D-01 0.918D-02 0.419D+00
 Coeff:      0.624D+00
 Gap=     0.306 Goal=   None    Shift=    0.000
 RMSDP=1.06D-06 MaxDP=2.07D-05 DE=-8.98D-08 OVMax= 3.32D-05

 Cycle   8  Pass 1  IDiag  1:
 E= -154.891299299340     Delta-E=       -0.000000012395 Rises=F Damp=F
 DIIS: error= 2.81D-06 at cycle   8 NSaved=   8.
 NSaved= 8 IEnMin= 8 EnMin= -154.891299299340     IErMin= 8 ErrMin= 2.81D-06
 ErrMax= 2.81D-06  0.00D+00 EMaxC= 1.00D-01 BMatC= 6.52D-10 BMatP= 1.16D-08
 IDIUse=1 WtCom= 1.00D+00 WtEn= 0.00D+00
 Coeff-Com:  0.151D-05 0.322D-03 0.237D-04-0.473D-02-0.100D-01-0.427D-01
 Coeff-Com:  0.118D+00 0.939D+00
 Coeff:      0.151D-05 0.322D-03 0.237D-04-0.473D-02-0.100D-01-0.427D-01
 Coeff:      0.118D+00 0.939D+00
 Gap=     0.306 Goal=   None    Shift=    0.000
 RMSDP=6.09D-07 MaxDP=6.22D-06 DE=-1.24D-08 OVMax= 3.58D-05

 Cycle   9  Pass 1  IDiag  1:
 E= -154.891299301305     Delta-E=       -0.000000001965 Rises=F Damp=F
 DIIS: error= 1.21D-06 at cycle   9 NSaved=   9.
 NSaved= 9 IEnMin= 9 EnMin= -154.891299301305     IErMin= 9 ErrMin= 1.21D-06
 ErrMax= 1.21D-06  0.00D+00 EMaxC= 1.00D-01 BMatC= 1.17D-10 BMatP= 6.52D-10
 IDIUse=1 WtCom= 1.00D+00 WtEn= 0.00D+00
 Coeff-Com: -0.854D-05 0.813D-04 0.104D-02 0.433D-02-0.253D-02-0.505D-01
 Coeff-Com: -0.874D-01 0.151D+00 0.984D+00
 Coeff:     -0.854D-05 0.813D-04 0.104D-02 0.433D-02-0.253D-02-0.505D-01
 Coeff:     -0.874D-01 0.151D+00 0.984D+00
 Gap=     0.306 Goal=   None    Shift=    0.000
 RMSDP=2.68D-07 MaxDP=3.37D-06 DE=-1.96D-09 OVMax= 1.41D-05

 Cycle  10  Pass 1  IDiag  1:
 E= -154.891299301607     Delta-E=       -0.000000000303 Rises=F Damp=F
 DIIS: error= 2.51D-07 at cycle  10 NSaved=  10.
 NSaved=10 IEnMin=10 EnMin= -154.891299301607     IErMin=10 ErrMin= 2.51D-07
 ErrMax= 2.51D-07  0.00D+00 EMaxC= 1.00D-01 BMatC= 5.95D-12 BMatP= 1.17D-10
 IDIUse=1 WtCom= 1.00D+00 WtEn= 0.00D+00
 Coeff-Com:  0.521D-06-0.384D-04-0.750D-07 0.102D-03 0.107D-02 0.500D-02
 Coeff-Com: -0.115D-01-0.641D-01-0.795D-01 0.115D+01
 Coeff:      0.521D-06-0.384D-04-0.750D-07 0.102D-03 0.107D-02 0.500D-02
 Coeff:     -0.115D-01-0.641D-01-0.795D-01 0.115D+01
 Gap=     0.306 Goal=   None    Shift=    0.000
 RMSDP=1.03D-07 MaxDP=1.40D-06 DE=-3.03D-10 OVMax= 5.85D-06

 Cycle  11  Pass 1  IDiag  1:
 E= -154.891299301634     Delta-E=       -0.000000000026 Rises=F Damp=F
 DIIS: error= 7.58D-08 at cycle  11 NSaved=  11.
 NSaved=11 IEnMin=11 EnMin= -154.891299301634     IErMin=11 ErrMin= 7.58D-08
 ErrMax= 7.58D-08  0.00D+00 EMaxC= 1.00D-01 BMatC= 6.75D-13 BMatP= 5.95D-12
 IDIUse=1 WtCom= 1.00D+00 WtEn= 0.00D+00
 Coeff-Com:  0.908D-06-0.101D-04-0.873D-04-0.466D-03 0.484D-03 0.526D-02
 Coeff-Com:  0.660D-02-0.159D-01-0.964D-01 0.785D-01 0.102D+01
 Coeff:      0.908D-06-0.101D-04-0.873D-04-0.466D-03 0.484D-03 0.526D-02
 Coeff:      0.660D-02-0.159D-01-0.964D-01 0.785D-01 0.102D+01
 Gap=     0.306 Goal=   None    Shift=    0.000
 RMSDP=2.61D-08 MaxDP=3.12D-07 DE=-2.62D-11 OVMax= 1.44D-06

 Cycle  12  Pass 1  IDiag  1:
 E= -154.891299301635     Delta-E=       -0.000000000001 Rises=F Damp=F
 DIIS: error= 1.51D-08 at cycle  12 NSaved=  12.
 NSaved=12 IEnMin=12 EnMin= -154.891299301635     IErMin=12 ErrMin= 1.51D-08
 ErrMax= 1.51D-08  0.00D+00 EMaxC= 1.00D-01 BMatC= 2.76D-14 BMatP= 6.75D-13
 IDIUse=1 WtCom= 1.00D+00 WtEn= 0.00D+00
 Coeff-Com: -0.140D-06 0.392D-05 0.131D-04 0.560D-04-0.113D-03-0.116D-02
 Coeff-Com: -0.529D-03 0.619D-02 0.235D-01-0.915D-01-0.186D+00 0.125D+01
 Coeff:     -0.140D-06 0.392D-05 0.131D-04 0.560D-04-0.113D-03-0.116D-02
 Coeff:     -0.529D-03 0.619D-02 0.235D-01-0.915D-01-0.186D+00 0.125D+01
 Gap=     0.306 Goal=   None    Shift=    0.000
 RMSDP=7.89D-09 MaxDP=1.21D-07 DE=-1.02D-12 OVMax= 4.43D-07

 SCF Done:  E(RM062X) =  -154.891299302     A.U. after   12 cycles
            NFock= 12  Conv=0.79D-08     -V/T= 2.0039
 KE= 1.542857810191D+02 PE=-5.199775849876D+02 EE= 1.320548246584D+02
 Leave Link  502 at Mon Jun  1 23:57:14 2020, MaxMem=   805306368 cpu:              90.1 elap:              23.7
 (Enter /home/qslin/g16/l601.exe)
 Copying SCF densities to generalized density rwf, IOpCl= 0 IROHF=0.

 **********************************************************************

            Population analysis using the SCF density.

 **********************************************************************

 Orbital symmetries:
       Occupied  (A) (A) (A) (A) (A) (A) (A) (A) (A) (A) (A) (A)
                 (A)
       Virtual   (A) (A) (A) (A) (A) (A) (A) (A) (A) (A) (A) (A)
                 (A) (A) (A) (A) (A) (A) (A) (A) (A) (A) (A) (A)
                 (A) (A) (A) (A) (A) (A) (A) (A) (A) (A) (A) (A)
                 (A) (A) (A) (A) (A) (A) (A) (A) (A) (A) (A) (A)
                 (A) (A) (A) (A) (A) (A) (A) (A) (A) (A) (A) (A)
                 (A) (A) (A) (A) (A) (A) (A) (A) (A) (A) (A) (A)
                 (A) (A) (A) (A) (A)
 The electronic state is 1-A.
 Alpha  occ. eigenvalues --  -19.61027 -10.60627 -10.50550  -1.09745  -0.86254
 Alpha  occ. eigenvalues --   -0.68197  -0.58347  -0.54468  -0.48289  -0.43793
 Alpha  occ. eigenvalues --   -0.41920  -0.40511  -0.27517
 Alpha virt. eigenvalues --    0.03131   0.06952   0.11288   0.12534   0.12737
 Alpha virt. eigenvalues --    0.18954   0.20649   0.28300   0.32737   0.33356
 Alpha virt. eigenvalues --    0.37153   0.42993   0.45336   0.51743   0.56601
 Alpha virt. eigenvalues --    0.58797   0.59388   0.62457   0.66026   0.70351
 Alpha virt. eigenvalues --    0.77435   0.82141   0.87979   0.92975   0.99749
 Alpha virt. eigenvalues --    1.11285   1.16279   1.24524   1.32812   1.36016
 Alpha virt. eigenvalues --    1.40643   1.43980   1.47636   1.51543   1.55148
 Alpha virt. eigenvalues --    1.58419   1.66374   1.67077   1.72014   1.82531
 Alpha virt. eigenvalues --    1.87161   1.88888   1.91683   1.95331   1.98491
 Alpha virt. eigenvalues --    2.05204   2.12769   2.18778   2.20878   2.24572
 Alpha virt. eigenvalues --    2.39313   2.40428   2.48452   2.53215   2.56538
 Alpha virt. eigenvalues --    2.57852   2.64767   2.71248   2.84645   2.88215
 Alpha virt. eigenvalues --    2.97527   3.06279   3.17519   3.22200   3.39462
 Alpha virt. eigenvalues --    3.60448   3.64128   3.67554   3.82528   3.88058
 Alpha virt. eigenvalues --    4.22565   5.02316   5.13113   5.58051  23.84601
 Alpha virt. eigenvalues --   24.07024  49.99525
          Condensed to atoms (all electrons):
               1          2          3          4          5          6
     1  C    5.365371   0.409063   0.410078   0.198628   0.411511  -0.036123
     2  H    0.409063   0.515978  -0.026641  -0.006200  -0.039240  -0.009134
     3  H    0.410078  -0.026641   0.503315  -0.002645  -0.038442   0.005006
     4  H    0.198628  -0.006200  -0.002645   0.439738  -0.057459   0.009597
     5  C    0.411511  -0.039240  -0.038442  -0.057459   4.944089   0.394904
     6  H   -0.036123  -0.009134   0.005006   0.009597   0.394904   0.523024
     7  H   -0.026939   0.004971  -0.007795   0.004354   0.398284  -0.025890
     8  O   -0.199754   0.004711   0.003963   0.124476   0.082032  -0.018715
     9  H    0.025985  -0.000889  -0.000380  -0.008729  -0.006847  -0.001249
               7          8          9
     1  C   -0.026939  -0.199754   0.025985
     2  H    0.004971   0.004711  -0.000889
     3  H   -0.007795   0.003963  -0.000380
     4  H    0.004354   0.124476  -0.008729
     5  C    0.398284   0.082032  -0.006847
     6  H   -0.025890  -0.018715  -0.001249
     7  H    0.488593  -0.015313   0.002262
     8  O   -0.015313   8.300225   0.262446
     9  H    0.002262   0.262446   0.471898
 Mulliken charges:
               1
     1  C   -0.557820
     2  H    0.147382
     3  H    0.153542
     4  H    0.298240
     5  C   -0.088832
     6  H    0.158581
     7  H    0.177474
     8  O   -0.544071
     9  H    0.255503
 Sum of Mulliken charges =  -0.00000
 Mulliken charges with hydrogens summed into heavy atoms:
               1
     1  C   -0.256895
     5  C    0.247223
     8  O    0.009672
 Electronic spatial extent (au):  <R**2>=            202.3803
 Charge=             -0.0000 electrons
 Dipole moment (field-independent basis, Debye):
    X=              0.1921    Y=              1.0841    Z=              1.4518  Tot=              1.8221
 Quadrupole moment (field-independent basis, Debye-Ang):
   XX=            -22.2308   YY=            -19.9439   ZZ=            -18.4832
   XY=             -0.1652   XZ=             -3.0907   YZ=             -0.4914
 Traceless Quadrupole moment (field-independent basis, Debye-Ang):
   XX=             -2.0115   YY=              0.2754   ZZ=              1.7361
   XY=             -0.1652   XZ=             -3.0907   YZ=             -0.4914
 Octapole moment (field-independent basis, Debye-Ang**2):
  XXX=             -8.8676  YYY=              2.9755  ZZZ=              1.0367  XYY=             -2.5932
  XXY=             -1.5256  XXZ=              5.1041  XZZ=             -2.4149  YZZ=              0.9263
  YYZ=              0.0574  XYZ=              0.7713
 Hexadecapole moment (field-independent basis, Debye-Ang**3):
 XXXX=           -159.1491 YYYY=            -69.2488 ZZZZ=            -33.6734 XXXY=             -0.8338
 XXXZ=            -10.6323 YYYX=              3.0428 YYYZ=             -0.3455 ZZZX=             -2.7509
 ZZZY=             -0.6097 XXYY=            -38.6035 XXZZ=            -27.6676 YYZZ=            -15.4743
 XXYZ=             -1.4697 YYXZ=             -0.6052 ZZXY=             -0.0832
 N-N= 7.874568000855D+01 E-N=-5.199775852314D+02  KE= 1.542857810191D+02
 No NMR shielding tensors so no spin-rotation constants.
 Leave Link  601 at Mon Jun  1 23:57:15 2020, MaxMem=   805306368 cpu:               0.6 elap:               0.2
 (Enter /home/qslin/g16/l9999.exe)
 1\1\GINC-QSLIN\SP\RM062X\6-311G(d,p)\C2H6O1\QSLIN\01-Jun-2020\0\\#p m0
 62x/6-311g** em=gd3 geom=allcheck guess=read\\optimize transition stat
 e and frequency\\0,1\C,0,-2.2004956623,-1.7578818042,-0.020644454\H,0,
 -1.8185006878,-2.7639797293,-0.1780611236\H,0,-2.5626612236,-1.2475425
 674,-0.9096457759\H,0,-3.1877332859,-1.7203876423,1.0366066187\C,0,-1.
 6126624697,-0.9728527915,1.0062834226\H,0,-0.8568930559,-1.3878259518,
 1.669897136\H,0,-1.6145078245,0.1115178802,0.9547553134\O,0,-3.1127936
 118,-1.1020253524,2.1285205181\H,0,-2.9350247586,-1.7391387013,2.84820
 04947\\Version=ES64L-G16RevA.03\State=1-A\HF=-154.8912993\RMSD=7.887e-
 09\Dipole=0.6204212,-0.2560362,0.2517887\Quadrupole=-1.0059682,0.48987
 49,0.5160932,0.8561403,1.2523901,-2.0833584\PG=C01 [X(C2H6O1)]\\@


 THERE'S NOTHING SO GREAT AS THE GREAT OUTDOORS.

                                       -- ZIGGY
 Job cpu time:       0 days  0 hours  1 minutes 37.5 seconds.
 Elapsed time:       0 days  0 hours  0 minutes 25.7 seconds.
 File lengths (MBytes):  RWF=      6 Int=      0 D2E=      0 Chk=      2 Scr=      1
 Normal termination of Gaussian 16 at Mon Jun  1 23:57:15 2020.
