 Entering Gaussian System, Link 0=g16
 Input=EtOH-R.gjf
 Output=EtOH-R.log
 Initial command:
 /home/qslin/g16/l1.exe "/mnt/d/G16W/Scratch/Gau-778.inp" -scrdir="/mnt/d/G16W/Scratch/"
 Default is to use a total of   4 processors:
                                4 via shared-memory
                                1 via Linda
 Entering Link 1 = /home/qslin/g16/l1.exe PID=       780.
  
 Copyright (c) 1988,1990,1992,1993,1995,1998,2003,2009,2016,
            Gaussian, Inc.  All Rights Reserved.
  
 This is part of the Gaussian(R) 16 program.  It is based on
 the Gaussian(R) 09 system (copyright 2009, Gaussian, Inc.),
 the Gaussian(R) 03 system (copyright 2003, Gaussian, Inc.),
 the Gaussian(R) 98 system (copyright 1998, Gaussian, Inc.),
 the Gaussian(R) 94 system (copyright 1995, Gaussian, Inc.),
 the Gaussian 92(TM) system (copyright 1992, Gaussian, Inc.),
 the Gaussian 90(TM) system (copyright 1990, Gaussian, Inc.),
 the Gaussian 88(TM) system (copyright 1988, Gaussian, Inc.),
 the Gaussian 86(TM) system (copyright 1986, Carnegie Mellon
 University), and the Gaussian 82(TM) system (copyright 1983,
 Carnegie Mellon University). Gaussian is a federally registered
 trademark of Gaussian, Inc.
  
 This software contains proprietary and confidential information,
 including trade secrets, belonging to Gaussian, Inc.
  
 This software is provided under written license and may be
 used, copied, transmitted, or stored only in accord with that
 written license.
  
 The following legend is applicable only to US Government
 contracts under FAR:
  
                    RESTRICTED RIGHTS LEGEND
  
 Use, reproduction and disclosure by the US Government is
 subject to restrictions as set forth in subparagraphs (a)
 and (c) of the Commercial Computer Software - Restricted
 Rights clause in FAR 52.227-19.
  
 Gaussian, Inc.
 340 Quinnipiac St., Bldg. 40, Wallingford CT 06492
  
  
 ---------------------------------------------------------------
 Warning -- This program may not be used in any manner that
 competes with the business of Gaussian, Inc. or will provide
 assistance to any competitor of Gaussian, Inc.  The licensee
 of this program is prohibited from giving any competitor of
 Gaussian, Inc. access to this program.  By using this program,
 the user acknowledges that Gaussian, Inc. is engaged in the
 business of creating and licensing software in the field of
 computational chemistry and represents and warrants to the
 licensee that it is not a competitor of Gaussian, Inc. and that
 it will not use this program in any manner prohibited above.
 ---------------------------------------------------------------
  

 Cite this work as:
 Gaussian 16, Revision A.03,
 M. J. Frisch, G. W. Trucks, H. B. Schlegel, G. E. Scuseria, 
 M. A. Robb, J. R. Cheeseman, G. Scalmani, V. Barone, 
 G. A. Petersson, H. Nakatsuji, X. Li, M. Caricato, A. V. Marenich, 
 J. Bloino, B. G. Janesko, R. Gomperts, B. Mennucci, H. P. Hratchian, 
 J. V. Ortiz, A. F. Izmaylov, J. L. Sonnenberg, D. Williams-Young, 
 F. Ding, F. Lipparini, F. Egidi, J. Goings, B. Peng, A. Petrone, 
 T. Henderson, D. Ranasinghe, V. G. Zakrzewski, J. Gao, N. Rega, 
 G. Zheng, W. Liang, M. Hada, M. Ehara, K. Toyota, R. Fukuda, 
 J. Hasegawa, M. Ishida, T. Nakajima, Y. Honda, O. Kitao, H. Nakai, 
 T. Vreven, K. Throssell, J. A. Montgomery, Jr., J. E. Peralta, 
 F. Ogliaro, M. J. Bearpark, J. J. Heyd, E. N. Brothers, K. N. Kudin, 
 V. N. Staroverov, T. A. Keith, R. Kobayashi, J. Normand, 
 K. Raghavachari, A. P. Rendell, J. C. Burant, S. S. Iyengar, 
 J. Tomasi, M. Cossi, J. M. Millam, M. Klene, C. Adamo, R. Cammi, 
 J. W. Ochterski, R. L. Martin, K. Morokuma, O. Farkas, 
 J. B. Foresman, and D. J. Fox, Gaussian, Inc., Wallingford CT, 2016.
 
 ******************************************
 Gaussian 16:  ES64L-G16RevA.03 25-Dec-2016
                 1-Jun-2020 
 ******************************************
 %mem=6GB
 %nprocshared=4
 Will use up to    4 processors via shared memory.
 %chk=EtOH-R.chk
 ----------------------------------------
 #p opt=calcfc freq b3lyp/6-31g* em=gd3bj
 ----------------------------------------
 1/10=4,18=20,19=15,26=3,38=1/1,3;
 2/9=110,12=2,17=6,18=5,40=1/2;
 3/5=1,6=6,7=1,11=2,25=1,30=1,71=2,74=-5,124=41,140=1/1,2,3;
 4//1;
 5/5=2,38=5/2;
 8/6=4,10=90,11=11/1;
 11/6=1,8=1,9=11,15=111,16=1/1,2,10;
 10/6=1,13=1/2;
 6/7=2,8=2,9=2,10=2,28=1/1;
 7/10=1,18=20,25=1/1,2,3,16;
 1/10=4,18=20,19=15,26=3/3(2);
 2/9=110/2;
 99//99;
 2/9=110/2;
 3/5=1,6=6,7=1,11=2,25=1,30=1,71=1,74=-5,124=41/1,2,3;
 4/5=5,16=3,69=1/1;
 5/5=2,38=5/2;
 7//1,2,3,16;
 1/18=20,19=15,26=3/3(-5);
 2/9=110/2;
 6/7=2,8=2,9=2,10=2,19=2,28=1/1;
 99/9=1/99;
 Leave Link    1 at Mon Jun  1 23:58:47 2020, MaxMem=   805306368 cpu:               0.3 elap:               0.1
 (Enter /home/qslin/g16/l101.exe)
 ---------------------------------------
 optimize transition state and frequency
 ---------------------------------------
 Symbolic Z-matrix:
 Charge =  0 Multiplicity = 1
 C                     0.00009  -0.22165  -1.24992 
 H                    -0.03591  -1.27391  -1.05921 
 H                     0.89125   0.01191  -1.79416 
 H                    -0.85494   0.06599  -1.82532 
 C                    -0.0001    0.54265   0.08703 
 H                     0.87353   1.15759   0.14644 
 H                    -0.87377   1.15753   0.14623 
 O                    -0.0002   -0.39123   1.16997 
 H                     0.00144   0.08479   2.00363 
 
 ITRead=  0  0  0  0  0  0  0  0  0
 MicOpt= -1 -1 -1 -1 -1 -1 -1 -1 -1
 NAtoms=      9 NQM=        9 NQMF=       0 NMMI=      0 NMMIF=      0
                NMic=       0 NMicF=      0.
                    Isotopes and Nuclear Properties:
 (Nuclear quadrupole moments (NQMom) in fm**2, nuclear magnetic moments (NMagM)
  in nuclear magnetons)

  Atom         1           2           3           4           5           6           7           8           9
 IAtWgt=          12           1           1           1          12           1           1          16           1
 AtmWgt=  12.0000000   1.0078250   1.0078250   1.0078250  12.0000000   1.0078250   1.0078250  15.9949146   1.0078250
 NucSpn=           0           1           1           1           0           1           1           0           1
 AtZEff=  -0.0000000  -0.0000000  -0.0000000  -0.0000000  -0.0000000  -0.0000000  -0.0000000  -0.0000000  -0.0000000
 NQMom=    0.0000000   0.0000000   0.0000000   0.0000000   0.0000000   0.0000000   0.0000000   0.0000000   0.0000000
 NMagM=    0.0000000   2.7928460   2.7928460   2.7928460   0.0000000   2.7928460   2.7928460   0.0000000   2.7928460
 AtZNuc=   6.0000000   1.0000000   1.0000000   1.0000000   6.0000000   1.0000000   1.0000000   8.0000000   1.0000000
 Leave Link  101 at Mon Jun  1 23:58:48 2020, MaxMem=   805306368 cpu:               2.1 elap:               0.5
 (Enter /home/qslin/g16/l103.exe)

 GradGradGradGradGradGradGradGradGradGradGradGradGradGradGradGradGradGrad
 Berny optimization.
 Initialization pass.
                           ----------------------------
                           !    Initial Parameters    !
                           ! (Angstroms and Degrees)  !
 --------------------------                            --------------------------
 ! Name  Definition              Value          Derivative Info.                !
 --------------------------------------------------------------------------------
 ! R1    R(1,2)                  1.07           calculate D2E/DX2 analytically  !
 ! R2    R(1,3)                  1.07           calculate D2E/DX2 analytically  !
 ! R3    R(1,4)                  1.07           calculate D2E/DX2 analytically  !
 ! R4    R(1,5)                  1.54           calculate D2E/DX2 analytically  !
 ! R5    R(5,6)                  1.07           calculate D2E/DX2 analytically  !
 ! R6    R(5,7)                  1.07           calculate D2E/DX2 analytically  !
 ! R7    R(5,8)                  1.43           calculate D2E/DX2 analytically  !
 ! R8    R(8,9)                  0.96           calculate D2E/DX2 analytically  !
 ! A1    A(2,1,3)              109.4712         calculate D2E/DX2 analytically  !
 ! A2    A(2,1,4)              109.4712         calculate D2E/DX2 analytically  !
 ! A3    A(2,1,5)              109.4712         calculate D2E/DX2 analytically  !
 ! A4    A(3,1,4)              109.4712         calculate D2E/DX2 analytically  !
 ! A5    A(3,1,5)              109.4713         calculate D2E/DX2 analytically  !
 ! A6    A(4,1,5)              109.4712         calculate D2E/DX2 analytically  !
 ! A7    A(1,5,6)              109.4712         calculate D2E/DX2 analytically  !
 ! A8    A(1,5,7)              109.4712         calculate D2E/DX2 analytically  !
 ! A9    A(1,5,8)              109.4712         calculate D2E/DX2 analytically  !
 ! A10   A(6,5,7)              109.4712         calculate D2E/DX2 analytically  !
 ! A11   A(6,5,8)              109.4713         calculate D2E/DX2 analytically  !
 ! A12   A(7,5,8)              109.4712         calculate D2E/DX2 analytically  !
 ! A13   A(5,8,9)              109.5            calculate D2E/DX2 analytically  !
 ! D1    D(2,1,5,6)            122.0455         calculate D2E/DX2 analytically  !
 ! D2    D(2,1,5,7)           -117.9545         calculate D2E/DX2 analytically  !
 ! D3    D(2,1,5,8)              2.0455         calculate D2E/DX2 analytically  !
 ! D4    D(3,1,5,6)              2.0455         calculate D2E/DX2 analytically  !
 ! D5    D(3,1,5,7)            122.0455         calculate D2E/DX2 analytically  !
 ! D6    D(3,1,5,8)           -117.9545         calculate D2E/DX2 analytically  !
 ! D7    D(4,1,5,6)           -117.9545         calculate D2E/DX2 analytically  !
 ! D8    D(4,1,5,7)              2.0455         calculate D2E/DX2 analytically  !
 ! D9    D(4,1,5,8)            122.0455         calculate D2E/DX2 analytically  !
 ! D10   D(1,5,8,9)            179.8889         calculate D2E/DX2 analytically  !
 ! D11   D(6,5,8,9)             59.8889         calculate D2E/DX2 analytically  !
 ! D12   D(7,5,8,9)            -60.1111         calculate D2E/DX2 analytically  !
 --------------------------------------------------------------------------------
 Trust Radius=3.00D-01 FncErr=1.00D-07 GrdErr=1.00D-06 EigMax=2.50D+02 EigMin=1.00D-04
 Number of steps in this run=     43 maximum allowed number of steps=    100.
 GradGradGradGradGradGradGradGradGradGradGradGradGradGradGradGradGradGrad

 Leave Link  103 at Mon Jun  1 23:58:48 2020, MaxMem=   805306368 cpu:               0.1 elap:               0.0
 (Enter /home/qslin/g16/l202.exe)
                          Input orientation:                          
 ---------------------------------------------------------------------
 Center     Atomic      Atomic             Coordinates (Angstroms)
 Number     Number       Type             X           Y           Z
 ---------------------------------------------------------------------
      1          6           0        0.000091   -0.221655   -1.249922
      2          1           0       -0.035905   -1.273907   -1.059214
      3          1           0        0.891248    0.011906   -1.794155
      4          1           0       -0.854940    0.065993   -1.825319
      5          6           0       -0.000096    0.542650    0.087029
      6          1           0        0.873528    1.157590    0.146438
      7          1           0       -0.873774    1.157533    0.146228
      8          8           0       -0.000196   -0.391235    1.169969
      9          1           0        0.001442    0.084795    2.003632
 ---------------------------------------------------------------------
                    Distance matrix (angstroms):
                    1          2          3          4          5
     1  C    0.000000
     2  H    1.070000   0.000000
     3  H    1.070000   1.747302   0.000000
     4  H    1.070000   1.747303   1.747303   0.000000
     5  C    1.540000   2.148263   2.148263   2.148263   0.000000
     6  H    2.148263   2.862314   2.253621   2.840249   1.070000
     7  H    2.148263   2.840249   2.862315   2.253621   1.070000
     8  O    2.425826   2.397841   3.121414   3.148237   1.430000
     9  H    3.267955   3.350893   3.901314   3.923596   1.970533
                    6          7          8          9
     6  H    0.000000
     7  H    1.747303   0.000000
     8  O    2.051796   2.051796   0.000000
     9  H    2.315295   2.316618   0.960000   0.000000
 Stoichiometry    C2H6O
 Framework group  C1[X(C2H6O)]
 Deg. of freedom    21
 Full point group                 C1      NOp   1
 Largest Abelian subgroup         C1      NOp   1
 Largest concise Abelian subgroup C1      NOp   1
                         Standard orientation:                         
 ---------------------------------------------------------------------
 Center     Atomic      Atomic             Coordinates (Angstroms)
 Number     Number       Type             X           Y           Z
 ---------------------------------------------------------------------
      1          6           0        1.249922   -0.221655    0.000091
      2          1           0        1.059214   -1.273907   -0.035905
      3          1           0        1.794155    0.011906    0.891248
      4          1           0        1.825319    0.065993   -0.854940
      5          6           0       -0.087029    0.542650   -0.000096
      6          1           0       -0.146438    1.157590    0.873528
      7          1           0       -0.146228    1.157533   -0.873774
      8          8           0       -1.169969   -0.391235   -0.000196
      9          1           0       -2.003632    0.084795    0.001442
 ---------------------------------------------------------------------
 Rotational constants (GHZ):          36.3552730           9.0935549           7.9810064
 Leave Link  202 at Mon Jun  1 23:58:48 2020, MaxMem=   805306368 cpu:               0.0 elap:               0.0
 (Enter /home/qslin/g16/l301.exe)
 Standard basis: 6-31G(d) (6D, 7F)
 Ernie: Thresh=  0.10000D-02 Tol=  0.10000D-05 Strict=F.
 There are    57 symmetry adapted cartesian basis functions of A   symmetry.
 There are    57 symmetry adapted basis functions of A   symmetry.
    57 basis functions,   108 primitive gaussians,    57 cartesian basis functions
    13 alpha electrons       13 beta electrons
       nuclear repulsion energy        81.7249188279 Hartrees.
 IExCor=  402 DFT=T Ex+Corr=B3LYP ExCW=0 ScaHFX=  0.200000
 ScaDFX=  0.800000  0.720000  1.000000  0.810000 ScalE2=  1.000000  1.000000
 IRadAn=      5 IRanWt=     -1 IRanGd=            0 ICorTp=0 IEmpDi=141
 NAtoms=    9 NActive=    9 NUniq=    9 SFac= 1.00D+00 NAtFMM=   60 NAOKFM=F Big=F
 Integral buffers will be    131072 words long.
 Raffenetti 2 integral format.
 Two-electron integral symmetry is turned on.
 R6Disp:  Grimme-D3(BJ) Dispersion energy=       -0.0069748572 Hartrees.
 Nuclear repulsion after empirical dispersion term =       81.7179439707 Hartrees.
 Leave Link  301 at Mon Jun  1 23:58:48 2020, MaxMem=   805306368 cpu:               0.1 elap:               0.0
 (Enter /home/qslin/g16/l302.exe)
 NPDir=0 NMtPBC=     1 NCelOv=     1 NCel=       1 NClECP=     1 NCelD=      1
         NCelK=      1 NCelE2=     1 NClLst=     1 CellRange=     0.0.
 One-electron integrals computed using PRISM.
 One-electron integral symmetry used in STVInt
 NBasis=    57 RedAO= T EigKep=  5.53D-03  NBF=    57
 NBsUse=    57 1.00D-06 EigRej= -1.00D+00 NBFU=    57
 Precomputing XC quadrature grid using
 IXCGrd= 4 IRadAn=           5 IRanWt=          -1 IRanGd=           0 AccXCQ= 0.00D+00.
 Generated NRdTot=       0 NPtTot=           0 NUsed=           0 NTot=          32
 NSgBfM=    57    57    57    57    57 MxSgAt=     9 MxSgA2=     9.
 Leave Link  302 at Mon Jun  1 23:58:48 2020, MaxMem=   805306368 cpu:               0.5 elap:               0.1
 (Enter /home/qslin/g16/l303.exe)
 DipDrv:  MaxL=1.
 Leave Link  303 at Mon Jun  1 23:58:48 2020, MaxMem=   805306368 cpu:               0.0 elap:               0.0
 (Enter /home/qslin/g16/l401.exe)
 ExpMin= 1.61D-01 ExpMax= 5.48D+03 ExpMxC= 8.25D+02 IAcc=3 IRadAn=         5 AccDes= 0.00D+00
 Harris functional with IExCor=  402 and IRadAn=       5 diagonalized for initial guess.
 HarFok:  IExCor=  402 AccDes= 0.00D+00 IRadAn=         5 IDoV= 1 UseB2=F ITyADJ=14
 ICtDFT=  3500011 ScaDFX=  1.000000  1.000000  1.000000  1.000000
 FoFCou: FMM=F IPFlag=           0 FMFlag=      100000 FMFlg1=           0
         NFxFlg=           0 DoJE=T BraDBF=F KetDBF=T FulRan=T
         wScrn=  0.000000 ICntrl=       500 IOpCl=  0 I1Cent=   200000004 NGrid=           0
         NMat0=    1 NMatS0=      1 NMatT0=    0 NMatD0=    1 NMtDS0=    0 NMtDT0=    0
 Petite list used in FoFCou.
 Harris En= -155.085129986271    
 JPrj=0 DoOrth=F DoCkMO=F.
 Leave Link  401 at Mon Jun  1 23:58:48 2020, MaxMem=   805306368 cpu:               1.9 elap:               0.5
 (Enter /home/qslin/g16/l502.exe)
 Keep R1 ints in memory in canonical form, NReq=4886539.
 FoFCou: FMM=F IPFlag=           0 FMFlag=           0 FMFlg1=           0
         NFxFlg=           0 DoJE=F BraDBF=F KetDBF=F FulRan=T
         wScrn=  0.000000 ICntrl=       600 IOpCl=  0 I1Cent=           0 NGrid=           0
         NMat0=    1 NMatS0=   1653 NMatT0=    0 NMatD0=    1 NMtDS0=    0 NMtDT0=    0
 Symmetry not used in FoFCou.
 Two-electron integral symmetry not used.
 Closed shell SCF:
 Using DIIS extrapolation, IDIIS=  1040.
 NGot=   805306368 LenX=   803931623 LenY=   803927933
 Requested convergence on RMS density matrix=1.00D-08 within 128 cycles.
 Requested convergence on MAX density matrix=1.00D-06.
 Requested convergence on             energy=1.00D-06.
 No special actions if energy rises.
 Integral accuracy reduced to 1.0D-05 until final iterations.

 Cycle   1  Pass 0  IDiag  1:
 E= -154.898351147782    
 DIIS: error= 5.40D-02 at cycle   1 NSaved=   1.
 NSaved= 1 IEnMin= 1 EnMin= -154.898351147782     IErMin= 1 ErrMin= 5.40D-02
 ErrMax= 5.40D-02  0.00D+00 EMaxC= 1.00D-01 BMatC= 1.39D-01 BMatP= 1.39D-01
 IDIUse=3 WtCom= 4.60D-01 WtEn= 5.40D-01
 Coeff-Com:  0.100D+01
 Coeff-En:   0.100D+01
 Coeff:      0.100D+01
 Gap=     0.289 Goal=   None    Shift=    0.000
 GapD=    0.289 DampG=1.000 DampE=0.500 DampFc=0.5000 IDamp=-1.
 Damping current iteration by 5.00D-01
 RMSDP=1.37D-02 MaxDP=1.44D-01              OVMax= 1.71D-01

 Cycle   2  Pass 0  IDiag  1:
 E= -154.955812556226     Delta-E=       -0.057461408444 Rises=F Damp=T
 DIIS: error= 7.68D-03 at cycle   2 NSaved=   2.
 NSaved= 2 IEnMin= 2 EnMin= -154.955812556226     IErMin= 2 ErrMin= 7.68D-03
 ErrMax= 7.68D-03  0.00D+00 EMaxC= 1.00D-01 BMatC= 6.82D-03 BMatP= 1.39D-01
 IDIUse=3 WtCom= 9.23D-01 WtEn= 7.68D-02
 Coeff-Com:  0.108D+00 0.892D+00
 Coeff-En:   0.156D+00 0.844D+00
 Coeff:      0.112D+00 0.888D+00
 Gap=     0.343 Goal=   None    Shift=    0.000
 RMSDP=2.00D-03 MaxDP=2.05D-02 DE=-5.75D-02 OVMax= 9.02D-02

 Cycle   3  Pass 0  IDiag  1:
 E= -155.030604852426     Delta-E=       -0.074792296200 Rises=F Damp=F
 DIIS: error= 4.62D-03 at cycle   3 NSaved=   3.
 NSaved= 3 IEnMin= 3 EnMin= -155.030604852426     IErMin= 3 ErrMin= 4.62D-03
 ErrMax= 4.62D-03  0.00D+00 EMaxC= 1.00D-01 BMatC= 1.96D-03 BMatP= 6.82D-03
 IDIUse=3 WtCom= 9.54D-01 WtEn= 4.62D-02
 Coeff-Com:  0.212D-01 0.326D+00 0.653D+00
 Coeff-En:   0.000D+00 0.000D+00 0.100D+01
 Coeff:      0.202D-01 0.311D+00 0.669D+00
 Gap=     0.333 Goal=   None    Shift=    0.000
 RMSDP=9.07D-04 MaxDP=1.22D-02 DE=-7.48D-02 OVMax= 1.29D-02

 Cycle   4  Pass 0  IDiag  1:
 E= -155.031641182252     Delta-E=       -0.001036329826 Rises=F Damp=F
 DIIS: error= 2.69D-03 at cycle   4 NSaved=   4.
 NSaved= 4 IEnMin= 4 EnMin= -155.031641182252     IErMin= 4 ErrMin= 2.69D-03
 ErrMax= 2.69D-03  0.00D+00 EMaxC= 1.00D-01 BMatC= 6.67D-04 BMatP= 1.96D-03
 IDIUse=3 WtCom= 9.73D-01 WtEn= 2.69D-02
 Coeff-Com:  0.115D-02 0.541D-01 0.374D+00 0.571D+00
 Coeff-En:   0.000D+00 0.000D+00 0.262D+00 0.738D+00
 Coeff:      0.112D-02 0.526D-01 0.371D+00 0.575D+00
 Gap=     0.336 Goal=   None    Shift=    0.000
 RMSDP=3.55D-04 MaxDP=4.59D-03 DE=-1.04D-03 OVMax= 4.99D-03

 Cycle   5  Pass 0  IDiag  1:
 E= -155.032170238911     Delta-E=       -0.000529056659 Rises=F Damp=F
 DIIS: error= 2.75D-04 at cycle   5 NSaved=   5.
 NSaved= 5 IEnMin= 5 EnMin= -155.032170238911     IErMin= 5 ErrMin= 2.75D-04
 ErrMax= 2.75D-04  0.00D+00 EMaxC= 1.00D-01 BMatC= 5.77D-06 BMatP= 6.67D-04
 IDIUse=3 WtCom= 9.97D-01 WtEn= 2.75D-03
 Coeff-Com:  0.758D-04-0.284D-03 0.745D-01 0.162D+00 0.764D+00
 Coeff-En:   0.000D+00 0.000D+00 0.000D+00 0.000D+00 0.100D+01
 Coeff:      0.756D-04-0.283D-03 0.743D-01 0.162D+00 0.764D+00
 Gap=     0.336 Goal=   None    Shift=    0.000
 RMSDP=3.78D-05 MaxDP=2.78D-04 DE=-5.29D-04 OVMax= 5.85D-04

 Cycle   6  Pass 0  IDiag  1:
 E= -155.032174997781     Delta-E=       -0.000004758870 Rises=F Damp=F
 DIIS: error= 4.42D-05 at cycle   6 NSaved=   6.
 NSaved= 6 IEnMin= 6 EnMin= -155.032174997781     IErMin= 6 ErrMin= 4.42D-05
 ErrMax= 4.42D-05  0.00D+00 EMaxC= 1.00D-01 BMatC= 1.43D-07 BMatP= 5.77D-06
 IDIUse=1 WtCom= 1.00D+00 WtEn= 0.00D+00
 Coeff-Com:  0.971D-04-0.810D-03 0.237D-01 0.544D-01 0.292D+00 0.631D+00
 Coeff:      0.971D-04-0.810D-03 0.237D-01 0.544D-01 0.292D+00 0.631D+00
 Gap=     0.336 Goal=   None    Shift=    0.000
 RMSDP=6.81D-06 MaxDP=9.04D-05 DE=-4.76D-06 OVMax= 1.16D-04

 Initial convergence to 1.0D-05 achieved.  Increase integral accuracy.
 Cycle   7  Pass 1  IDiag  1:
 E= -155.032176732694     Delta-E=       -0.000001734913 Rises=F Damp=F
 DIIS: error= 1.52D-05 at cycle   1 NSaved=   1.
 NSaved= 1 IEnMin= 1 EnMin= -155.032176732694     IErMin= 1 ErrMin= 1.52D-05
 ErrMax= 1.52D-05  0.00D+00 EMaxC= 1.00D-01 BMatC= 1.40D-08 BMatP= 1.40D-08
 IDIUse=1 WtCom= 1.00D+00 WtEn= 0.00D+00
 Coeff-Com:  0.100D+01
 Coeff:      0.100D+01
 Gap=     0.336 Goal=   None    Shift=    0.000
 RMSDP=6.81D-06 MaxDP=9.04D-05 DE=-1.73D-06 OVMax= 5.73D-05

 Cycle   8  Pass 1  IDiag  1:
 E= -155.032176728552     Delta-E=        0.000000004142 Rises=F Damp=F
 DIIS: error= 1.80D-05 at cycle   2 NSaved=   2.
 NSaved= 2 IEnMin= 1 EnMin= -155.032176732694     IErMin= 1 ErrMin= 1.52D-05
 ErrMax= 1.80D-05  0.00D+00 EMaxC= 1.00D-01 BMatC= 1.83D-08 BMatP= 1.40D-08
 IDIUse=1 WtCom= 1.00D+00 WtEn= 0.00D+00
 Coeff-Com:  0.534D+00 0.466D+00
 Coeff:      0.534D+00 0.466D+00
 Gap=     0.336 Goal=   None    Shift=    0.000
 RMSDP=1.97D-06 MaxDP=2.97D-05 DE= 4.14D-09 OVMax= 3.24D-05

 Cycle   9  Pass 1  IDiag  1:
 E= -155.032176745774     Delta-E=       -0.000000017222 Rises=F Damp=F
 DIIS: error= 5.28D-07 at cycle   3 NSaved=   3.
 NSaved= 3 IEnMin= 3 EnMin= -155.032176745774     IErMin= 3 ErrMin= 5.28D-07
 ErrMax= 5.28D-07  0.00D+00 EMaxC= 1.00D-01 BMatC= 2.54D-11 BMatP= 1.40D-08
 IDIUse=1 WtCom= 1.00D+00 WtEn= 0.00D+00
 Coeff-Com:  0.134D+00 0.125D+00 0.741D+00
 Coeff:      0.134D+00 0.125D+00 0.741D+00
 Gap=     0.336 Goal=   None    Shift=    0.000
 RMSDP=9.50D-08 MaxDP=1.02D-06 DE=-1.72D-08 OVMax= 1.51D-06

 Cycle  10  Pass 1  IDiag  1:
 E= -155.032176745792     Delta-E=       -0.000000000018 Rises=F Damp=F
 DIIS: error= 3.37D-07 at cycle   4 NSaved=   4.
 NSaved= 4 IEnMin= 4 EnMin= -155.032176745792     IErMin= 4 ErrMin= 3.37D-07
 ErrMax= 3.37D-07  0.00D+00 EMaxC= 1.00D-01 BMatC= 4.49D-12 BMatP= 2.54D-11
 IDIUse=1 WtCom= 1.00D+00 WtEn= 0.00D+00
 Coeff-Com:  0.315D-01 0.320D-01 0.328D+00 0.609D+00
 Coeff:      0.315D-01 0.320D-01 0.328D+00 0.609D+00
 Gap=     0.336 Goal=   None    Shift=    0.000
 RMSDP=3.81D-08 MaxDP=6.44D-07 DE=-1.82D-11 OVMax= 5.64D-07

 Cycle  11  Pass 1  IDiag  1:
 E= -155.032176745795     Delta-E=       -0.000000000003 Rises=F Damp=F
 DIIS: error= 1.04D-07 at cycle   5 NSaved=   5.
 NSaved= 5 IEnMin= 5 EnMin= -155.032176745795     IErMin= 5 ErrMin= 1.04D-07
 ErrMax= 1.04D-07  0.00D+00 EMaxC= 1.00D-01 BMatC= 8.41D-13 BMatP= 4.49D-12
 IDIUse=1 WtCom= 1.00D+00 WtEn= 0.00D+00
 Coeff-Com: -0.539D-02-0.362D-02 0.593D-01 0.335D+00 0.615D+00
 Coeff:     -0.539D-02-0.362D-02 0.593D-01 0.335D+00 0.615D+00
 Gap=     0.336 Goal=   None    Shift=    0.000
 RMSDP=1.22D-08 MaxDP=1.85D-07 DE=-3.01D-12 OVMax= 2.07D-07

 Cycle  12  Pass 1  IDiag  1:
 E= -155.032176745795     Delta-E=        0.000000000000 Rises=F Damp=F
 DIIS: error= 5.71D-09 at cycle   6 NSaved=   6.
 NSaved= 6 IEnMin= 5 EnMin= -155.032176745795     IErMin= 6 ErrMin= 5.71D-09
 ErrMax= 5.71D-09  0.00D+00 EMaxC= 1.00D-01 BMatC= 2.55D-15 BMatP= 8.41D-13
 IDIUse=1 WtCom= 1.00D+00 WtEn= 0.00D+00
 Coeff-Com: -0.163D-02-0.125D-02 0.850D-02 0.649D-01 0.148D+00 0.782D+00
 Coeff:     -0.163D-02-0.125D-02 0.850D-02 0.649D-01 0.148D+00 0.782D+00
 Gap=     0.336 Goal=   None    Shift=    0.000
 RMSDP=1.29D-09 MaxDP=1.29D-08 DE= 2.84D-13 OVMax= 1.94D-08

 SCF Done:  E(RB3LYP) =  -155.032176746     A.U. after   12 cycles
            NFock= 12  Conv=0.13D-08     -V/T= 2.0080
 KE= 1.538022072184D+02 PE=-5.255322060138D+02 EE= 1.349798780788D+02
 Leave Link  502 at Mon Jun  1 23:58:52 2020, MaxMem=   805306368 cpu:              13.8 elap:               3.5
 (Enter /home/qslin/g16/l801.exe)
 DoSCS=F DFT=T ScalE2(SS,OS)=  1.000000  1.000000
 Range of M.O.s used for correlation:     1    57
 NBasis=    57 NAE=    13 NBE=    13 NFC=     0 NFV=     0
 NROrb=     57 NOA=    13 NOB=    13 NVA=    44 NVB=    44
 Leave Link  801 at Mon Jun  1 23:58:52 2020, MaxMem=   805306368 cpu:               0.0 elap:               0.0
 (Enter /home/qslin/g16/l1101.exe)
 Using compressed storage, NAtomX=     9.
 Will process     10 centers per pass.
 R6Disp: Adding Grimme-D3(BJ) dispersion energy 1st derivatives to the gradient.
 Leave Link 1101 at Mon Jun  1 23:58:52 2020, MaxMem=   805306368 cpu:               0.4 elap:               0.1
 (Enter /home/qslin/g16/l1102.exe)
 Symmetrizing basis deriv contribution to polar:
 IMax=3 JMax=2 DiffMx= 0.00D+00
 Leave Link 1102 at Mon Jun  1 23:58:52 2020, MaxMem=   805306368 cpu:               0.1 elap:               0.0
 (Enter /home/qslin/g16/l1110.exe)
 Forming Gx(P) for the SCF density, NAtomX=     9.
 Integral derivatives from FoFJK, PRISM(SPDF).
 Do as many integral derivatives as possible in FoFJK.
 G2DrvN: MDV=     805305584.
 G2DrvN: will do    10 centers at a time, making    1 passes.
 Calling FoFCou, ICntrl=  3107 FMM=F I1Cent=   0 AccDes= 0.00D+00.
 FoFJK:  IHMeth= 1 ICntrl=    3107 DoSepK=F KAlg= 0 I1Cent=           0 FoldK=F
 IRaf=         0 NMat=       1 IRICut=       1 DoRegI=T DoRafI=F ISym2E= 0 IDoP0=0 IntGTp=1.
 FoFCou: FMM=F IPFlag=           0 FMFlag=      100000 FMFlg1=           0
         NFxFlg=           0 DoJE=F BraDBF=F KetDBF=F FulRan=T
         wScrn=  0.000000 ICntrl=      3107 IOpCl=  0 I1Cent=           0 NGrid=           0
         NMat0=    1 NMatS0=      1 NMatT0=    0 NMatD0=    1 NMtDS0=    0 NMtDT0=    0
 Symmetry not used in FoFCou.
 End of G2Drv F.D. properties file   721 does not exist.
 End of G2Drv F.D. properties file   722 does not exist.
 End of G2Drv F.D. properties file   788 does not exist.
 Leave Link 1110 at Mon Jun  1 23:58:58 2020, MaxMem=   805306368 cpu:              22.6 elap:               5.7
 (Enter /home/qslin/g16/l1002.exe)
 Minotr:  Closed shell wavefunction.
          IDoAtm=111111111
          Direct CPHF calculation.
          Differentiating once with respect to nuclear coordinates.
          Requested convergence is 1.0D-08 RMS, and 1.0D-07 maximum.
          Secondary convergence is 1.0D-12 RMS, and 1.0D-12 maximum.
          NewPWx=T KeepS1=F KeepF1=F KeepIn=T MapXYZ=F SortEE=F KeepMc=T.
         2641 words used for storage of precomputed grid.
 Keep R1 ints in memory in canonical form, NReq=4880991.
 FoFCou: FMM=F IPFlag=           0 FMFlag=           0 FMFlg1=           0
         NFxFlg=           0 DoJE=F BraDBF=F KetDBF=F FulRan=T
         wScrn=  0.000000 ICntrl=       600 IOpCl=  0 I1Cent=           0 NGrid=           0
         NMat0=    1 NMatS0=   1653 NMatT0=    0 NMatD0=    1 NMtDS0=    0 NMtDT0=    0
 Symmetry not used in FoFCou.
 Two-electron integral symmetry not used.
          MDV=     805306368 using IRadAn=       1.
          Solving linear equations simultaneously, MaxMat=       0.
          There are    30 degrees of freedom in the 1st order CPHF.  IDoFFX=6 NUNeed=     0.
     24 vectors produced by pass  0 Test12= 1.91D-15 3.33D-09 XBig12= 6.86D-02 9.47D-02.
 AX will form    24 AO Fock derivatives at one time.
     24 vectors produced by pass  1 Test12= 1.91D-15 3.33D-09 XBig12= 2.19D-03 1.17D-02.
     24 vectors produced by pass  2 Test12= 1.91D-15 3.33D-09 XBig12= 2.02D-05 1.21D-03.
     24 vectors produced by pass  3 Test12= 1.91D-15 3.33D-09 XBig12= 7.92D-08 6.99D-05.
     24 vectors produced by pass  4 Test12= 1.91D-15 3.33D-09 XBig12= 6.28D-11 2.99D-06.
     10 vectors produced by pass  5 Test12= 1.91D-15 3.33D-09 XBig12= 3.56D-14 4.62D-08.
 InvSVY:  IOpt=1 It=  1 EMax= 2.00D-15
 Solved reduced A of dimension   130 with    24 vectors.
 End of Minotr F.D. properties file   721 does not exist.
 End of Minotr F.D. properties file   722 does not exist.
 End of Minotr F.D. properties file   788 does not exist.
 Leave Link 1002 at Mon Jun  1 23:59:03 2020, MaxMem=   805306368 cpu:              18.1 elap:               4.6
 (Enter /home/qslin/g16/l601.exe)
 Copying SCF densities to generalized density rwf, IOpCl= 0 IROHF=0.

 **********************************************************************

            Population analysis using the SCF density.

 **********************************************************************

 Orbital symmetries:
       Occupied  (A) (A) (A) (A) (A) (A) (A) (A) (A) (A) (A) (A)
                 (A)
       Virtual   (A) (A) (A) (A) (A) (A) (A) (A) (A) (A) (A) (A)
                 (A) (A) (A) (A) (A) (A) (A) (A) (A) (A) (A) (A)
                 (A) (A) (A) (A) (A) (A) (A) (A) (A) (A) (A) (A)
                 (A) (A) (A) (A) (A) (A) (A) (A)
 The electronic state is 1-A.
 Alpha  occ. eigenvalues --  -19.13090 -10.22040 -10.16383  -1.00419  -0.74488
 Alpha  occ. eigenvalues --   -0.61260  -0.50889  -0.46564  -0.38906  -0.38028
 Alpha  occ. eigenvalues --   -0.36985  -0.31893  -0.25717
 Alpha virt. eigenvalues --    0.07885   0.12468   0.14146   0.15886   0.17753
 Alpha virt. eigenvalues --    0.22922   0.24066   0.26003   0.53361   0.54568
 Alpha virt. eigenvalues --    0.55072   0.61510   0.65947   0.74263   0.82169
 Alpha virt. eigenvalues --    0.86334   0.87868   0.90035   0.90363   0.95795
 Alpha virt. eigenvalues --    1.00800   1.01514   1.02040   1.12719   1.33836
 Alpha virt. eigenvalues --    1.41500   1.50373   1.68696   1.75759   1.80562
 Alpha virt. eigenvalues --    1.94700   1.98151   2.04888   2.16049   2.22749
 Alpha virt. eigenvalues --    2.31292   2.39871   2.46299   2.51090   2.62203
 Alpha virt. eigenvalues --    2.83482   3.73303   4.16931   4.43310
          Condensed to atoms (all electrons):
               1          2          3          4          5          6
     1  C    5.104571   0.374639   0.379103   0.377824   0.370913  -0.047992
     2  H    0.374639   0.516584  -0.024348  -0.024192  -0.033562   0.003875
     3  H    0.379103  -0.024348   0.559472  -0.031817  -0.031325  -0.008720
     4  H    0.377824  -0.024192  -0.031817   0.560572  -0.031108   0.004374
     5  C    0.370913  -0.033562  -0.031325  -0.031108   4.751935   0.379063
     6  H   -0.047992   0.003875  -0.008720   0.004374   0.379063   0.646595
     7  H   -0.048450   0.003370   0.004565  -0.008164   0.379624  -0.057501
     8  O   -0.049696   0.003806   0.002017   0.002099   0.258902  -0.041169
     9  H    0.007476  -0.000060  -0.000276  -0.000282  -0.024195  -0.003992
               7          8          9
     1  C   -0.048450  -0.049696   0.007476
     2  H    0.003370   0.003806  -0.000060
     3  H    0.004565   0.002017  -0.000276
     4  H   -0.008164   0.002099  -0.000282
     5  C    0.379624   0.258902  -0.024195
     6  H   -0.057501  -0.041169  -0.003992
     7  H    0.646237  -0.041090  -0.003904
     8  O   -0.041090   8.263627   0.233393
     9  H   -0.003904   0.233393   0.404007
 Mulliken charges:
               1
     1  C   -0.468388
     2  H    0.179887
     3  H    0.151330
     4  H    0.150693
     5  C   -0.020246
     6  H    0.125465
     7  H    0.125314
     8  O   -0.631890
     9  H    0.387835
 Sum of Mulliken charges =  -0.00000
 Mulliken charges with hydrogens summed into heavy atoms:
               1
     1  C    0.013522
     5  C    0.230533
     8  O   -0.244055
 APT charges:
               1
     1  C   -1.110805
     2  H    0.335310
     3  H    0.405435
     4  H    0.407646
     5  C   -0.563261
     6  H    0.358371
     7  H    0.358421
     8  O   -0.850651
     9  H    0.659535
 Sum of APT charges =  -0.00000
 APT charges with hydrogens summed into heavy atoms:
               1
     1  C    0.037585
     5  C    0.153530
     8  O   -0.191116
 Electronic spatial extent (au):  <R**2>=            194.7590
 Charge=             -0.0000 electrons
 Dipole moment (field-independent basis, Debye):
    X=             -0.1724    Y=              1.5619    Z=              0.0026  Tot=              1.5714
 Quadrupole moment (field-independent basis, Debye-Ang):
   XX=            -16.6884   YY=            -20.1845   ZZ=            -19.7303
   XY=             -1.9169   XZ=             -0.0100   YZ=              0.0060
 Traceless Quadrupole moment (field-independent basis, Debye-Ang):
   XX=              2.1794   YY=             -1.3168   ZZ=             -0.8626
   XY=             -1.9169   XZ=             -0.0100   YZ=              0.0060
 Octapole moment (field-independent basis, Debye-Ang**2):
  XXX=            -16.1341  YYY=             -1.5657  ZZZ=              0.0555  XYY=             -0.9545
  XXY=              2.4549  XXZ=             -0.0040  XZZ=             -0.8454  YZZ=              0.4837
  YYZ=             -0.0427  XYZ=             -0.0167
 Hexadecapole moment (field-independent basis, Debye-Ang**3):
 XXXX=           -134.7267 YYYY=            -52.7913 ZZZZ=            -31.1850 XXXY=             -1.0253
 XXXZ=             -0.0946 YYYX=              0.2175 YYYZ=              0.0707 ZZZX=              0.0818
 ZZZY=             -0.0165 XXYY=            -36.4265 XXZZ=            -30.8762 YYZZ=            -14.1304
 XXYZ=             -0.0582 YYXZ=             -0.0524 ZZXY=              0.5387
 N-N= 8.171794397074D+01 E-N=-5.255322057287D+02  KE= 1.538022072184D+02
  Exact polarizability:   0.000   0.000   0.000   0.000   0.000   0.000
 Approx polarizability:  33.894   0.627  31.356  -0.030   0.006  29.087
 No NMR shielding tensors so no spin-rotation constants.
 Leave Link  601 at Mon Jun  1 23:59:03 2020, MaxMem=   805306368 cpu:               0.3 elap:               0.1
 (Enter /home/qslin/g16/l701.exe)
 ... and contract with generalized density number  0.
 Compute integral second derivatives.
 R6Disp: Adding Grimme-D3(BJ) dispersion energy 2nd derivatives to the Hessian.
 Leave Link  701 at Mon Jun  1 23:59:03 2020, MaxMem=   805306368 cpu:               0.6 elap:               0.2
 (Enter /home/qslin/g16/l702.exe)
 L702 exits ... SP integral derivatives will be done elsewhere.
 Leave Link  702 at Mon Jun  1 23:59:03 2020, MaxMem=   805306368 cpu:               0.1 elap:               0.0
 (Enter /home/qslin/g16/l703.exe)
 Integral derivatives from FoFJK, PRISM(SPDF).
 Compute integral second derivatives, UseDBF=F ICtDFT=           0.
 Calling FoFJK, ICntrl=    100147 FMM=F ISym2X=0 I1Cent= 0 IOpClX= 0 NMat=1 NMatS=1 NMatT=0.
 FoFJK:  IHMeth= 1 ICntrl=  100147 DoSepK=F KAlg= 0 I1Cent=           0 FoldK=F
 IRaf=         0 NMat=       1 IRICut=       1 DoRegI=T DoRafI=F ISym2E= 0 IDoP0=0 IntGTp=1.
 FoFCou: FMM=F IPFlag=           0 FMFlag=      100000 FMFlg1=         800
         NFxFlg=           0 DoJE=F BraDBF=F KetDBF=F FulRan=T
         wScrn=  0.000000 ICntrl=    100147 IOpCl=  0 I1Cent=           0 NGrid=           0
         NMat0=    1 NMatS0=      1 NMatT0=    0 NMatD0=    1 NMtDS0=    0 NMtDT0=    0
 Symmetry not used in FoFCou.
 Leave Link  703 at Mon Jun  1 23:59:13 2020, MaxMem=   805306368 cpu:              37.6 elap:               9.5
 (Enter /home/qslin/g16/l716.exe)
 Dipole        =-6.78180297D-02 6.14499298D-01 1.00798727D-03
 Polarizability= 0.00000000D+00 0.00000000D+00 0.00000000D+00
                 0.00000000D+00 0.00000000D+00 0.00000000D+00
 ***** Axes restored to original set *****
 -------------------------------------------------------------------
 Center     Atomic                   Forces (Hartrees/Bohr)
 Number     Number              X              Y              Z
 -------------------------------------------------------------------
      1        6           0.000376589    0.012463284    0.020213456
      2        1          -0.000698966   -0.016085720    0.002524140
      3        1           0.012648720    0.000592686   -0.011691366
      4        1          -0.012065390    0.001702141   -0.012145648
      5        6          -0.000260937   -0.023642907    0.002801780
      6        1           0.014504994    0.014866128    0.001190633
      7        1          -0.014659144    0.014700042    0.001309750
      8        8           0.000104254   -0.011629432   -0.009706108
      9        1           0.000049881    0.007033778    0.005503363
 -------------------------------------------------------------------
 Cartesian Forces:  Max     0.023642907 RMS     0.010825774
 Force constants in Cartesian coordinates: 
                1             2             3             4             5 
      1  0.645212D+00
      2 -0.840963D-04  0.603134D+00
      3 -0.314346D-03 -0.841050D-01  0.509581D+00
      4 -0.432483D-01 -0.107757D-01  0.222044D-02  0.411453D-01
      5 -0.109679D-01 -0.360467D+00  0.595362D-01  0.118486D-01  0.385264D+00
      6  0.214907D-02  0.607463D-01 -0.511570D-01 -0.220172D-02 -0.626718D-01
      7 -0.272800D+00 -0.596359D-01  0.136717D+00  0.119800D-02  0.308313D-03
      8 -0.600472D-01 -0.592952D-01  0.396694D-01 -0.307294D-01 -0.383500D-02
      9  0.134765D+00  0.380215D-01 -0.124437D+00  0.405296D-02  0.413406D-03
     10 -0.254894D+00  0.704911D-01 -0.138997D+00  0.308708D-02 -0.745974D-03
     11  0.705362D-01 -0.674054D-01  0.502580D-01  0.296859D-01 -0.562207D-02
     12 -0.137019D+00  0.485795D-01 -0.134135D+00 -0.378020D-02  0.628335D-03
     13 -0.820364D-01 -0.354562D-04  0.414477D-03 -0.282440D-02 -0.613114D-03
     14  0.493337D-03 -0.113992D+00 -0.504592D-01 -0.370389D-05 -0.166050D-01
     15  0.548135D-03 -0.537175D-01 -0.151383D+00 -0.223082D-03  0.155973D-02
     16  0.272276D-02  0.271707D-02  0.127822D-02 -0.660519D-04  0.734361D-03
     17 -0.151039D-01 -0.754005D-02 -0.417274D-02 -0.401474D-04 -0.773432D-03
     18 -0.199519D-01 -0.175128D-01 -0.492702D-02 -0.127893D-02 -0.159348D-02
     19  0.274038D-02 -0.258095D-02 -0.113324D-02 -0.146777D-03 -0.617491D-03
     20  0.152544D-01 -0.738916D-02 -0.404336D-02 -0.256990D-05 -0.687168D-03
     21  0.202567D-01 -0.169802D-01 -0.537010D-02  0.120890D-02 -0.150734D-02
     22  0.118185D-02 -0.562339D-04 -0.137352D-03  0.872416D-03  0.342534D-04
     23 -0.447363D-04  0.160472D-01 -0.888889D-02 -0.266294D-04  0.206385D-02
     24 -0.285014D-03  0.198254D-01 -0.344350D-01 -0.213389D-04  0.252513D-02
     25  0.112231D-02 -0.399290D-04 -0.480195D-04 -0.173343D-04  0.189466D-04
     26 -0.360943D-04 -0.309192D-02  0.220559D-02  0.436253D-04  0.661302D-03
     27 -0.148658D-03  0.514271D-02 -0.373716D-02  0.229724D-04  0.110973D-02
                6             7             8             9            10 
      6  0.555472D-01
      7 -0.151001D-02  0.287805D+00
      8  0.169996D-01  0.661892D-01  0.607369D-01
      9 -0.310353D-02 -0.146383D+00 -0.357524D-01  0.136216D+00
     10  0.276953D-02 -0.208933D-01  0.899172D-02 -0.164695D-01  0.268364D+00
     11  0.179513D-01 -0.737762D-02  0.207836D-02 -0.597299D-02 -0.779171D-01
     12 -0.316855D-02  0.149103D-01 -0.663028D-02  0.117390D-01  0.148644D+00
     13 -0.123991D-02  0.153892D-02  0.145381D-01  0.251293D-01  0.135448D-02
     14 -0.322704D-01  0.309080D-03  0.631516D-03  0.635240D-02 -0.505500D-03
     15  0.407698D-02 -0.289970D-02 -0.108550D-01 -0.140868D-01  0.290160D-02
     16  0.960612D-04  0.214568D-02  0.243115D-03 -0.351547D-03  0.843367D-03
     17 -0.114959D-02  0.237179D-03  0.154036D-02  0.475705D-03  0.856304D-04
     18 -0.320839D-02 -0.704055D-03 -0.544778D-03  0.933912D-03 -0.544733D-03
     19 -0.606176D-04  0.956995D-03  0.136137D-03 -0.120079D-03  0.208257D-02
     20 -0.930839D-03 -0.154575D-03 -0.173542D-02 -0.202981D-02 -0.244724D-03
     21 -0.279459D-02  0.513659D-03 -0.237616D-02 -0.261939D-02  0.728613D-03
     22 -0.187459D-04  0.227216D-03  0.387908D-03 -0.524443D-03  0.211569D-03
     23  0.103379D-02  0.723223D-04 -0.638752D-03 -0.188042D-02 -0.129405D-03
     24  0.320617D-02 -0.300876D-03 -0.364975D-03 -0.357281D-02  0.547457D-03
     25  0.163529D-04 -0.177883D-03  0.290395D-03 -0.985022D-04 -0.156192D-03
     26  0.291669D-03  0.519689D-04  0.517264D-03  0.372552D-03 -0.257194D-04
     27  0.601770D-03 -0.343132D-03 -0.145449D-03 -0.106873D-02  0.420694D-03
               11            12            13            14            15 
     11  0.693169D-01
     12 -0.476754D-01  0.146869D+00
     13 -0.138495D-01 -0.237712D-01  0.685954D+00
     14  0.190937D-02  0.832095D-02 -0.767202D-04  0.562560D+00
     15 -0.112305D-01 -0.146587D-01 -0.193017D-03  0.329852D-01  0.448138D+00
     16 -0.180382D-03  0.106461D-03 -0.269019D+00 -0.141594D+00 -0.218758D-01
     17 -0.169902D-02 -0.191432D-02 -0.138158D+00 -0.140555D+00 -0.157272D-01
     18 -0.197150D-02 -0.234250D-02 -0.225510D-01 -0.171288D-01 -0.436944D-01
     19 -0.217439D-03  0.436532D-03 -0.269010D+00  0.141362D+00  0.217036D-01
     20  0.163877D-02  0.478902D-03  0.138133D+00 -0.140690D+00 -0.158769D-01
     21 -0.583686D-03  0.876083D-03  0.223723D-01 -0.171526D-01 -0.435588D-01
     22 -0.433152D-03  0.419713D-03 -0.635233D-01  0.531542D-04 -0.416450D-04
     23 -0.804907D-03 -0.221551D-02  0.289565D-04 -0.162274D+00  0.390438D-01
     24 -0.560334D-03 -0.400648D-02 -0.121529D-03  0.925559D-01 -0.159519D+00
     25 -0.246859D-03  0.539796D-04 -0.243365D-02 -0.376714D-04  0.799096D-04
     26  0.588066D-03  0.427797D-03  0.323584D-04  0.901593D-02  0.338182D-01
     27 -0.214943D-03 -0.117277D-02 -0.392915D-04 -0.232034D-01 -0.253137D-01
               16            17            18            19            20 
     16  0.276300D+00
     17  0.155909D+00  0.157324D+00
     18  0.173882D-01  0.853860D-02  0.578855D-01
     19 -0.230346D-01  0.163547D-01  0.332781D-02  0.276272D+00
     20 -0.163489D-01  0.141296D-01  0.172421D-03 -0.155938D+00  0.157169D+00
     21 -0.334252D-02  0.187377D-03  0.294015D-02 -0.174440D-01  0.836726D-02
     22  0.976528D-02 -0.197940D-01  0.236392D-01  0.980232D-02  0.198112D-01
     23 -0.104416D-02 -0.226276D-01  0.296359D-01  0.106508D-02 -0.226274D-01
     24  0.590964D-02  0.146893D-01 -0.937103D-02 -0.592480D-02  0.147928D-01
     25  0.342984D-03  0.509326D-03  0.675412D-03  0.338055D-03 -0.510327D-03
     26 -0.436339D-03  0.201111D-03  0.404441D-03  0.435865D-03  0.192239D-03
     27  0.791304D-03 -0.927222D-03  0.178378D-02 -0.785217D-03 -0.930547D-03
               21            22            23            24            25 
     21  0.581057D-01
     22 -0.236112D-01  0.379201D-01
     23  0.296461D-01  0.572255D-03  0.362410D+00
     24 -0.935188D-02  0.978135D-03  0.101275D+00  0.614563D+00
     25 -0.682441D-03  0.354253D-02 -0.493692D-03 -0.781671D-03 -0.256082D-02
     26  0.399182D-03 -0.575476D-03 -0.171549D+00 -0.244739D+00  0.509810D-03
     27  0.177285D-02 -0.703651D-03 -0.187650D+00 -0.397513D+00  0.784979D-03
               26            27 
     26  0.163465D+00
     27  0.206819D+00  0.424647D+00
 FormGI is forming the generalized inverse of G from B-inverse, IUseBI=4.
 Force constants in internal coordinates: 
                1             2             3             4             5 
      1  0.397180D+00
      2  0.175791D-02  0.393794D+00
      3  0.174794D-02  0.224088D-02  0.393855D+00
      4  0.307752D-02  0.302456D-02  0.291731D-02  0.290064D+00
      5 -0.196185D-03  0.175072D-02 -0.282021D-03  0.462044D-02  0.384767D+00
      6 -0.146063D-03 -0.354743D-03  0.174885D-02  0.470054D-02  0.439623D-02
      7 -0.595660D-03  0.745708D-03  0.695307D-03  0.188496D-01  0.179317D-01
      8 -0.115319D-02  0.179754D-03  0.179900D-03  0.420504D-03  0.770964D-04
      9  0.421430D-02  0.590426D-02 -0.162130D-03 -0.181985D-01  0.293296D-03
     10  0.420102D-02 -0.183002D-03  0.581225D-02 -0.180677D-01 -0.137615D-02
     11  0.214498D-02 -0.506185D-02 -0.512529D-02  0.133103D-01  0.943284D-03
     12  0.151153D-03  0.610294D-02  0.606481D-02 -0.199857D-01 -0.259185D-03
     13 -0.537419D-02 -0.163263D-02 -0.515118D-02  0.217427D-01 -0.242692D-02
     14 -0.533726D-02 -0.512972D-02 -0.143846D-02  0.211988D-01  0.282568D-02
     15  0.298834D-02 -0.290261D-02  0.115959D-02  0.142525D-01  0.111051D-02
     16  0.278575D-02  0.138133D-02 -0.294444D-02  0.143181D-01 -0.565035D-02
     17 -0.808057D-02  0.323048D-02  0.362079D-02  0.133645D-01 -0.101345D-02
     18 -0.164496D-02  0.292353D-03  0.336273D-03 -0.117856D-01  0.553119D-02
     19  0.197850D-02 -0.467554D-03 -0.161563D-02 -0.151160D-01 -0.451311D-03
     20  0.197294D-02 -0.153399D-02 -0.556581D-03 -0.150335D-01  0.473408D-03
     21  0.603426D-04  0.255849D-03  0.294660D-03  0.504345D-02  0.534071D-03
     22 -0.755096D-03  0.328523D-02 -0.269691D-02 -0.129578D-02 -0.184707D-02
     23  0.766139D-03  0.271170D-02 -0.337805D-02  0.176565D-02  0.214716D-02
     24 -0.599160D-04  0.365709D-02 -0.364554D-02  0.305530D-03 -0.135376D-02
     25 -0.393906D-02  0.153533D-03  0.379469D-02 -0.472830D-03 -0.129775D-02
     26 -0.241782D-02 -0.420002D-03  0.311354D-02  0.258860D-02  0.269648D-02
     27 -0.324388D-02  0.525390D-03  0.284605D-02  0.112848D-02 -0.804440D-03
     28  0.243522D-02 -0.317993D-02  0.402158D-03 -0.229169D-02 -0.122450D-02
     29  0.395645D-02 -0.375347D-02 -0.278988D-03  0.769738D-03  0.276973D-02
     30  0.313040D-02 -0.280808D-02 -0.546477D-03 -0.690380D-03 -0.731195D-03
     31  0.916054D-04 -0.151072D-02  0.144204D-02 -0.755996D-04  0.222299D-02
     32  0.168390D-03  0.352301D-03 -0.120607D-02 -0.164588D-01  0.175988D-02
     33 -0.236706D-03  0.121994D-02 -0.287709D-03  0.164384D-01 -0.502796D-02
                6             7             8             9            10 
      6  0.384719D+00
      7  0.179987D-01  0.340939D+00
      8  0.656902D-04 -0.464887D-02  0.538545D+00
      9 -0.136378D-02  0.310886D-03  0.327496D-03  0.520441D-01
     10  0.309614D-03  0.187416D-03  0.310560D-03  0.932410D-02  0.519316D-01
     11  0.741484D-03 -0.411442D-02 -0.147621D-02 -0.392574D-01 -0.393717D-01
     12 -0.322478D-03 -0.312320D-02 -0.929071D-03  0.108875D-01  0.108351D-01
     13  0.298917D-02  0.309966D-02  0.815961D-03 -0.444611D-01  0.114259D-01
     14 -0.235401D-02  0.363966D-02  0.951262D-03  0.114629D-01 -0.441450D-01
     15 -0.567521D-02 -0.203164D-01 -0.146979D-02 -0.137565D-02 -0.504698D-02
     16  0.110060D-02 -0.202435D-01 -0.148541D-02 -0.511118D-02 -0.983216D-03
     17 -0.959418D-03  0.138248D-01  0.114021D-01  0.428783D-02  0.372740D-02
     18  0.551742D-02 -0.215358D-02  0.107331D-02  0.176667D-02  0.164235D-02
     19  0.463981D-03  0.143954D-01 -0.477446D-02 -0.408548D-03  0.100070D-02
     20 -0.447377D-03  0.144932D-01 -0.474573D-02  0.840864D-03 -0.340251D-03
     21  0.536793D-03  0.441478D-01  0.167185D-01 -0.824409D-03 -0.981234D-03
     22 -0.213728D-02  0.136797D-01  0.230102D-03  0.717093D-02 -0.551785D-02
     23  0.181879D-02 -0.137956D-01 -0.265048D-03  0.536230D-02 -0.719912D-02
     24  0.135732D-02  0.243188D-04 -0.466361D-05  0.588796D-02 -0.593538D-02
     25 -0.275155D-02  0.139204D-01  0.233321D-03 -0.530284D-02  0.175742D-03
     26  0.120452D-02 -0.135549D-01 -0.261829D-03 -0.711147D-02 -0.150553D-02
     27  0.743053D-03  0.264977D-03 -0.144451D-05 -0.658582D-02 -0.241785D-03
     28 -0.274555D-02  0.136185D-01  0.288996D-03  0.156994D-02  0.694179D-02
     29  0.121052D-02 -0.138568D-01 -0.206154D-03 -0.238684D-03  0.526052D-02
     30  0.749052D-03 -0.368762D-04  0.542307D-04  0.286969D-03  0.652427D-02
     31 -0.223388D-02 -0.592217D-04  0.187972D-05  0.119286D-02 -0.132315D-02
     32  0.502019D-02  0.754186D-02 -0.225658D-02  0.502104D-03  0.196275D-02
     33 -0.174741D-02 -0.751113D-02  0.225880D-02 -0.192636D-02 -0.453144D-03
               11            12            13            14            15 
     11  0.105037D+00
     12  0.120630D-01  0.538832D-01
     13 -0.192948D-01 -0.438610D-01  0.117732D+00
     14 -0.191761D-01 -0.438078D-01 -0.215413D-01  0.117207D+00
     15  0.807385D-02  0.791581D-03 -0.519975D-02  0.275695D-02  0.775968D-01
     16  0.698617D-02  0.451915D-03  0.404626D-02 -0.538995D-02 -0.982448D-02
     17 -0.172504D-01 -0.702947D-02  0.718032D-02  0.908435D-02 -0.382901D-01
     18 -0.388481D-02  0.201712D-03 -0.740593D-04  0.348138D-03 -0.231907D-01
     19  0.283570D-02  0.275219D-02 -0.151162D-02 -0.466842D-02 -0.269774D-01
     20  0.323953D-02  0.283207D-02 -0.444115D-02 -0.213107D-02  0.206858D-01
     21 -0.104396D-02 -0.207800D-02  0.225498D-02  0.267262D-02 -0.485205D-02
     22 -0.219150D-02 -0.523577D-03  0.523958D-02 -0.417758D-02 -0.737608D-02
     23  0.227293D-02  0.484951D-03  0.444251D-02 -0.536358D-02  0.572321D-02
     24 -0.450269D-04 -0.744019D-04  0.587809D-02 -0.571124D-02  0.159403D-02
     25 -0.661731D-02  0.561420D-02 -0.587318D-03  0.671752D-02 -0.745128D-02
     26 -0.215287D-02  0.662273D-02 -0.138439D-02  0.553152D-02  0.564801D-02
     27 -0.447083D-02  0.606338D-02  0.511900D-04  0.518386D-02  0.151883D-02
     28  0.216706D-02 -0.669292D-02 -0.577349D-02  0.178762D-02 -0.692486D-02
     29  0.663149D-02 -0.568440D-02 -0.657056D-02  0.601624D-03  0.617443D-02
     30  0.431353D-02 -0.624375D-02 -0.513498D-02  0.253963D-03  0.204525D-02
     31  0.375997D-03  0.137408D-03 -0.315171D-02  0.276859D-02  0.260136D-01
     32 -0.685214D-03  0.178721D-02 -0.254690D-03 -0.331216D-02 -0.290547D-01
     33  0.352376D-03 -0.187948D-02  0.348133D-02  0.425280D-03  0.320078D-02
               16            17            18            19            20 
     16  0.776136D-01
     17 -0.381620D-01  0.170803D+00
     18 -0.230966D-01  0.266105D-01  0.304416D-01
     19  0.206704D-01 -0.606012D-01 -0.538440D-02  0.634888D-01
     20 -0.272008D-01 -0.603603D-01 -0.538037D-02  0.880389D-02  0.634518D-01
     21 -0.487054D-02  0.222089D-01  0.295790D-02 -0.773562D-02 -0.770859D-02
     22 -0.558650D-02  0.693121D-02 -0.453085D-02  0.116253D-01 -0.106308D-02
     23  0.763816D-02 -0.729486D-02  0.440725D-02  0.116850D-02 -0.116423D-01
     24 -0.151687D-02  0.491591D-05 -0.305380D-04 -0.125015D-01  0.124500D-01
     25 -0.608257D-02  0.784638D-02 -0.427027D-02  0.113148D-01 -0.135709D-02
     26  0.714210D-02 -0.637969D-02  0.466783D-02  0.858038D-03 -0.119363D-01
     27 -0.201294D-02  0.920081D-03  0.230042D-03 -0.128120D-01  0.121560D-01
     28 -0.581321D-02  0.649564D-02 -0.468515D-02  0.117286D-01 -0.801007D-03
     29  0.741145D-02 -0.773043D-02  0.425294D-02  0.127180D-02 -0.113802D-01
     30 -0.174358D-02 -0.430658D-03 -0.184842D-03 -0.123982D-01  0.127120D-01
     31 -0.259484D-01 -0.151834D-03 -0.454001D-04 -0.815243D-02  0.828443D-02
     32 -0.320452D-02 -0.207410D-01  0.153590D-01  0.231198D-01  0.145213D-01
     33  0.290820D-01  0.207416D-01 -0.153321D-01 -0.145557D-01 -0.231365D-01
               21            22            23            24            25 
     21  0.178136D+00
     22  0.114824D-02  0.159075D-01
     23 -0.118294D-02  0.242041D-02  0.160003D-01
     24 -0.645411D-05  0.194187D-02  0.195173D-02  0.162739D-01
     25  0.141634D-02  0.525835D-02 -0.825940D-02 -0.884138D-02  0.161649D-01
     26 -0.914844D-03 -0.822871D-02  0.532049D-02 -0.883152D-02  0.264715D-02
     27  0.261640D-03 -0.870725D-02 -0.872808D-02  0.549063D-02  0.206517D-02
     28  0.943830D-03  0.524926D-02 -0.828930D-02 -0.885243D-02  0.553496D-02
     29 -0.138735D-02 -0.823780D-02  0.529059D-02 -0.884257D-02 -0.798279D-02
     30 -0.210865D-03 -0.871634D-02 -0.875798D-02  0.547958D-02 -0.856477D-02
     31  0.269752D-04  0.194333D-02  0.192768D-02 -0.390906D-02  0.218216D-02
     32 -0.289355D-02 -0.386344D-03 -0.133017D-02  0.179123D-02 -0.425722D-03
     33  0.294140D-02 -0.130522D-02 -0.314079D-03  0.186019D-02 -0.129358D-02
               26            27            28            29            30 
     26  0.161964D-01
     27  0.204434D-02  0.162630D-01
     28 -0.800360D-02 -0.856673D-02  0.161729D-01
     29  0.554560D-02 -0.858756D-02  0.263436D-02  0.161627D-01
     30 -0.860642D-02  0.563115D-02  0.207123D-02  0.202959D-02  0.162672D-01
     31  0.216651D-02 -0.367024D-02  0.224847D-02  0.223282D-02 -0.360392D-02
     32 -0.136955D-02  0.175185D-02 -0.430356D-03 -0.137419D-02  0.174721D-02
     33 -0.302436D-03  0.187183D-02 -0.138399D-02 -0.392850D-03  0.178142D-02
               31            32            33 
     31  0.188038D-01
     32 -0.797095D-02  0.261569D-01
     33 -0.799618D-02 -0.157044D-01  0.261553D-01
 Leave Link  716 at Mon Jun  1 23:59:13 2020, MaxMem=   805306368 cpu:               0.1 elap:               0.0
 (Enter /home/qslin/g16/l103.exe)

 GradGradGradGradGradGradGradGradGradGradGradGradGradGradGradGradGradGrad
 Berny optimization.
 Red2BG is reusing G-inverse.
 Internal  Forces:  Max     0.020489314 RMS     0.007736687
 Search for a local minimum.
 Step number   1 out of a maximum of   43
 All quantities printed in internal units (Hartrees-Bohrs-Radians)
 RMS Force = .77367D-02 SwitMx=.10000D-02 MixMth= 1
 Mixed Optimization -- RFO/linear search
 Second derivative matrix not updated -- analytic derivatives used.
 ITU=  0
     Eigenvalues ---   -0.00280   0.00261   0.04816   0.04879   0.05209
     Eigenvalues ---    0.06768   0.10684   0.12920   0.13956   0.14767
     Eigenvalues ---    0.16386   0.16908   0.24741   0.31192   0.35274
     Eigenvalues ---    0.38052   0.39239   0.39488   0.40015   0.40685
     Eigenvalues ---    0.54017
 Eigenvalue     1 is  -2.80D-03 should be greater than     0.000000 Eigenvector:
                          D3        D1        D2        D9        D6
   1                   -0.33947  -0.33478  -0.33452  -0.33392  -0.33357
                          D7        D8        D4        D5        D10
   1                   -0.32924  -0.32897  -0.32889  -0.32862   0.04385
 RFO step:  Lambda=-5.96499042D-03 EMin=-2.79960231D-03
 Linear search not attempted -- first point.
 Iteration  1 RMS(Cart)=  0.09763517 RMS(Int)=  0.02918817
 Iteration  2 RMS(Cart)=  0.02561481 RMS(Int)=  0.00052761
 Iteration  3 RMS(Cart)=  0.00043629 RMS(Int)=  0.00033911
 Iteration  4 RMS(Cart)=  0.00000010 RMS(Int)=  0.00033911
 ITry= 1 IFail=0 DXMaxC= 2.84D-01 DCOld= 1.00D+10 DXMaxT= 3.00D-01 DXLimC= 3.00D+00 Rises=F
 Variable       Old X    -DE/DX   Delta X   Delta X   Delta X     New X
                                 (Linear)    (Quad)   (Total)
    R1        2.02201   0.01629   0.00000   0.04153   0.04153   2.06354
    R2        2.02201   0.01661   0.00000   0.04194   0.04194   2.06395
    R3        2.02201   0.01663   0.00000   0.04277   0.04277   2.06478
    R4        2.91018   0.00161   0.00000  -0.00945  -0.00945   2.90073
    R5        2.02201   0.02045   0.00000   0.05311   0.05311   2.07512
    R6        2.02201   0.02049   0.00000   0.05353   0.05353   2.07554
    R7        2.70231  -0.00018   0.00000  -0.00431  -0.00431   2.69800
    R8        1.81414   0.00827   0.00000   0.01683   0.01683   1.83097
    A1        1.91063  -0.00253   0.00000  -0.02229  -0.02208   1.88856
    A2        1.91063  -0.00244   0.00000  -0.02241  -0.02220   1.88844
    A3        1.91063  -0.00171   0.00000  -0.01551  -0.01528   1.89535
    A4        1.91063  -0.00450   0.00000  -0.02359  -0.02492   1.88571
    A5        1.91063   0.00575   0.00000   0.04939   0.04877   1.95940
    A6        1.91063   0.00544   0.00000   0.03441   0.03377   1.94440
    A7        1.91063   0.00283   0.00000   0.01490   0.01498   1.92561
    A8        1.91063   0.00288   0.00000   0.01844   0.01855   1.92918
    A9        1.91063  -0.00804   0.00000  -0.02837  -0.02822   1.88241
   A10        1.91063  -0.00340   0.00000  -0.03973  -0.03976   1.87087
   A11        1.91063   0.00284   0.00000   0.01491   0.01501   1.92564
   A12        1.91063   0.00288   0.00000   0.01987   0.02000   1.93063
   A13        1.91114  -0.00613   0.00000  -0.03039  -0.03039   1.88074
    D1        2.13010   0.00044   0.00000   0.26517   0.26514   2.39524
    D2       -2.05869  -0.00022   0.00000   0.23692   0.23695  -1.82174
    D3        0.03570   0.00015   0.00000   0.25517   0.25516   0.29086
    D4        0.03570   0.00107   0.00000   0.27173   0.27210   0.30780
    D5        2.13010   0.00041   0.00000   0.24348   0.24391   2.37401
    D6       -2.05869   0.00078   0.00000   0.26172   0.26212  -1.79657
    D7       -2.05869  -0.00027   0.00000   0.24930   0.24887  -1.80983
    D8        0.03570  -0.00093   0.00000   0.22105   0.22068   0.25638
    D9        2.13010  -0.00056   0.00000   0.23929   0.23889   2.36898
   D10        3.13965  -0.00005   0.00000  -0.03408  -0.03406   3.10559
   D11        1.04526  -0.00033   0.00000  -0.04407  -0.04403   1.00123
   D12       -1.04914   0.00033   0.00000  -0.01670  -0.01676  -1.06590
         Item               Value     Threshold  Converged?
 Maximum Force            0.020489     0.000450     NO 
 RMS     Force            0.007737     0.000300     NO 
 Maximum Displacement     0.284216     0.001800     NO 
 RMS     Displacement     0.119422     0.001200     NO 
 Predicted change in Energy=-4.045521D-03
 Lowest energy point so far.  Saving SCF results.
 GradGradGradGradGradGradGradGradGradGradGradGradGradGradGradGradGradGrad

 Leave Link  103 at Mon Jun  1 23:59:13 2020, MaxMem=   805306368 cpu:               0.1 elap:               0.0
 (Enter /home/qslin/g16/l202.exe)
                          Input orientation:                          
 ---------------------------------------------------------------------
 Center     Atomic      Atomic             Coordinates (Angstroms)
 Number     Number       Type             X           Y           Z
 ---------------------------------------------------------------------
      1          6           0        0.004794   -0.212056   -1.238234
      2          1           0       -0.186306   -1.269332   -1.043139
      3          1           0        0.973247   -0.126489   -1.735895
      4          1           0       -0.762345    0.152199   -1.925738
      5          6           0       -0.032640    0.546422    0.095759
      6          1           0        0.789646    1.272551    0.144963
      7          1           0       -0.970105    1.110532    0.192015
      8          8           0        0.087905   -0.411531    1.147508
      9          1           0        0.097201    0.071374    1.987446
 ---------------------------------------------------------------------
                    Distance matrix (angstroms):
                    1          2          3          4          5
     1  C    0.000000
     2  H    1.091977   0.000000
     3  H    1.092195   1.769340   0.000000
     4  H    1.092633   1.769620   1.768047   0.000000
     5  C    1.535001   2.148875   2.195353   2.185024   0.000000
     6  H    2.175611   2.970730   2.351308   2.819870   1.098106
     7  H    2.178366   2.793510   3.003943   2.333761   1.098329
     8  O    2.395509   2.368533   3.029702   3.238141   1.427719
     9  H    3.239426   3.326005   3.830127   4.007288   1.954740
                    6          7          8          9
     6  H    0.000000
     7  H    1.767820   0.000000
     8  O    2.081746   2.085432   0.000000
     9  H    2.305873   2.332931   0.968906   0.000000
 Stoichiometry    C2H6O
 Framework group  C1[X(C2H6O)]
 Deg. of freedom    21
 Full point group                 C1      NOp   1
 RotChk:  IX=0 Diff= 1.43D-01
 Largest Abelian subgroup         C1      NOp   1
 Largest concise Abelian subgroup C1      NOp   1
                         Standard orientation:                         
 ---------------------------------------------------------------------
 Center     Atomic      Atomic             Coordinates (Angstroms)
 Number     Number       Type             X           Y           Z
 ---------------------------------------------------------------------
      1          6           0        1.234961   -0.216278    0.002471
      2          1           0        1.040649   -1.248653   -0.295620
      3          1           0        1.703857   -0.228387    0.988817
      4          1           0        1.946804    0.215087   -0.705378
      5          6           0       -0.093704    0.552402   -0.000484
      6          1           0       -0.164014    1.196116    0.886379
      7          1           0       -0.159223    1.205089   -0.881411
      8          8           0       -1.153120   -0.404680   -0.004007
      9          1           0       -1.990659    0.081450    0.027347
 ---------------------------------------------------------------------
 Rotational constants (GHZ):          34.9293436           9.2450856           8.0433692
 Leave Link  202 at Mon Jun  1 23:59:13 2020, MaxMem=   805306368 cpu:               0.0 elap:               0.0
 (Enter /home/qslin/g16/l301.exe)
 Standard basis: 6-31G(d) (6D, 7F)
 Ernie: Thresh=  0.10000D-02 Tol=  0.10000D-05 Strict=F.
 There are    57 symmetry adapted cartesian basis functions of A   symmetry.
 There are    57 symmetry adapted basis functions of A   symmetry.
    57 basis functions,   108 primitive gaussians,    57 cartesian basis functions
    13 alpha electrons       13 beta electrons
       nuclear repulsion energy        81.3965263544 Hartrees.
 IExCor=  402 DFT=T Ex+Corr=B3LYP ExCW=0 ScaHFX=  0.200000
 ScaDFX=  0.800000  0.720000  1.000000  0.810000 ScalE2=  1.000000  1.000000
 IRadAn=      5 IRanWt=     -1 IRanGd=            0 ICorTp=0 IEmpDi=141
 NAtoms=    9 NActive=    9 NUniq=    9 SFac= 1.00D+00 NAtFMM=   60 NAOKFM=F Big=F
 Integral buffers will be    131072 words long.
 Raffenetti 2 integral format.
 Two-electron integral symmetry is turned on.
 R6Disp:  Grimme-D3(BJ) Dispersion energy=       -0.0069565438 Hartrees.
 Nuclear repulsion after empirical dispersion term =       81.3895698106 Hartrees.
 Leave Link  301 at Mon Jun  1 23:59:13 2020, MaxMem=   805306368 cpu:               0.1 elap:               0.0
 (Enter /home/qslin/g16/l302.exe)
 NPDir=0 NMtPBC=     1 NCelOv=     1 NCel=       1 NClECP=     1 NCelD=      1
         NCelK=      1 NCelE2=     1 NClLst=     1 CellRange=     0.0.
 One-electron integrals computed using PRISM.
 One-electron integral symmetry used in STVInt
 NBasis=    57 RedAO= T EigKep=  5.84D-03  NBF=    57
 NBsUse=    57 1.00D-06 EigRej= -1.00D+00 NBFU=    57
 Precomputing XC quadrature grid using
 IXCGrd= 4 IRadAn=           5 IRanWt=          -1 IRanGd=           0 AccXCQ= 0.00D+00.
 Generated NRdTot=       0 NPtTot=           0 NUsed=           0 NTot=          32
 NSgBfM=    57    57    57    57    57 MxSgAt=     9 MxSgA2=     9.
 Leave Link  302 at Mon Jun  1 23:59:13 2020, MaxMem=   805306368 cpu:               0.6 elap:               0.2
 (Enter /home/qslin/g16/l303.exe)
 DipDrv:  MaxL=1.
 Leave Link  303 at Mon Jun  1 23:59:13 2020, MaxMem=   805306368 cpu:               0.0 elap:               0.0
 (Enter /home/qslin/g16/l401.exe)
 Initial guess from the checkpoint file:  "EtOH-R.chk"
 B after Tr=     0.000000    0.000000    0.000000
         Rot=    0.999448   -0.032789    0.005195   -0.001019 Ang=  -3.81 deg.
 Guess basis will be translated and rotated to current coordinates.
 JPrj=2 DoOrth=T DoCkMO=T.
 Generating alternative initial guess.
 ExpMin= 1.61D-01 ExpMax= 5.48D+03 ExpMxC= 8.25D+02 IAcc=2 IRadAn=         4 AccDes= 0.00D+00
 Harris functional with IExCor=  402 and IRadAn=       4 diagonalized for initial guess.
 HarFok:  IExCor=  402 AccDes= 0.00D+00 IRadAn=         4 IDoV= 1 UseB2=F ITyADJ=14
 ICtDFT=  3500011 ScaDFX=  1.000000  1.000000  1.000000  1.000000
 FoFCou: FMM=F IPFlag=           0 FMFlag=      100000 FMFlg1=           0
         NFxFlg=           0 DoJE=T BraDBF=F KetDBF=T FulRan=T
         wScrn=  0.000000 ICntrl=       500 IOpCl=  0 I1Cent=   200000004 NGrid=           0
         NMat0=    1 NMatS0=      1 NMatT0=    0 NMatD0=    1 NMtDS0=    0 NMtDT0=    0
 Petite list used in FoFCou.
 Harris En= -155.079565056682    
 Leave Link  401 at Mon Jun  1 23:59:13 2020, MaxMem=   805306368 cpu:               1.3 elap:               0.3
 (Enter /home/qslin/g16/l502.exe)
 Keep R1 ints in memory in canonical form, NReq=4886539.
 FoFCou: FMM=F IPFlag=           0 FMFlag=           0 FMFlg1=           0
         NFxFlg=           0 DoJE=F BraDBF=F KetDBF=F FulRan=T
         wScrn=  0.000000 ICntrl=       600 IOpCl=  0 I1Cent=           0 NGrid=           0
         NMat0=    1 NMatS0=   1653 NMatT0=    0 NMatD0=    1 NMtDS0=    0 NMtDT0=    0
 Symmetry not used in FoFCou.
 Two-electron integral symmetry not used.
 Closed shell SCF:
 Using DIIS extrapolation, IDIIS=  1040.
 NGot=   805306368 LenX=   803931623 LenY=   803927933
 Requested convergence on RMS density matrix=1.00D-08 within 128 cycles.
 Requested convergence on MAX density matrix=1.00D-06.
 Requested convergence on             energy=1.00D-06.
 No special actions if energy rises.
 Integral accuracy reduced to 1.0D-05 until final iterations.

 Cycle   1  Pass 0  IDiag  1:
 E= -155.025428065623    
 DIIS: error= 6.73D-03 at cycle   1 NSaved=   1.
 NSaved= 1 IEnMin= 1 EnMin= -155.025428065623     IErMin= 1 ErrMin= 6.73D-03
 ErrMax= 6.73D-03  0.00D+00 EMaxC= 1.00D-01 BMatC= 5.07D-03 BMatP= 5.07D-03
 IDIUse=3 WtCom= 9.33D-01 WtEn= 6.73D-02
 Coeff-Com:  0.100D+01
 Coeff-En:   0.100D+01
 Coeff:      0.100D+01
 Gap=     1.672 Goal=   None    Shift=    0.000
 GapD=    1.672 DampG=2.000 DampE=1.000 DampFc=2.0000 IDamp=-1.
 RMSDP=2.10D-03 MaxDP=2.13D-02              OVMax= 4.66D-02

 Cycle   2  Pass 0  IDiag  1:
 E= -155.035891131039     Delta-E=       -0.010463065416 Rises=F Damp=F
 DIIS: error= 2.62D-03 at cycle   2 NSaved=   2.
 NSaved= 2 IEnMin= 2 EnMin= -155.035891131039     IErMin= 2 ErrMin= 2.62D-03
 ErrMax= 2.62D-03  0.00D+00 EMaxC= 1.00D-01 BMatC= 2.79D-04 BMatP= 5.07D-03
 IDIUse=3 WtCom= 9.74D-01 WtEn= 2.62D-02
 Coeff-Com:  0.555D-02 0.994D+00
 Coeff-En:   0.000D+00 0.100D+01
 Coeff:      0.540D-02 0.995D+00
 Gap=     0.336 Goal=   None    Shift=    0.000
 RMSDP=5.76D-04 MaxDP=7.22D-03 DE=-1.05D-02 OVMax= 9.84D-03

 Cycle   3  Pass 0  IDiag  1:
 E= -155.035923678986     Delta-E=       -0.000032547947 Rises=F Damp=F
 DIIS: error= 2.94D-03 at cycle   3 NSaved=   3.
 NSaved= 3 IEnMin= 3 EnMin= -155.035923678986     IErMin= 2 ErrMin= 2.62D-03
 ErrMax= 2.94D-03  0.00D+00 EMaxC= 1.00D-01 BMatC= 3.16D-04 BMatP= 2.79D-04
 IDIUse=3 WtCom= 1.56D-01 WtEn= 8.44D-01
 Coeff-Com: -0.486D-01 0.543D+00 0.506D+00
 Coeff-En:   0.000D+00 0.472D+00 0.528D+00
 Coeff:     -0.758D-02 0.483D+00 0.525D+00
 Gap=     0.335 Goal=   None    Shift=    0.000
 RMSDP=3.08D-04 MaxDP=4.50D-03 DE=-3.25D-05 OVMax= 5.27D-03

 Cycle   4  Pass 0  IDiag  1:
 E= -155.036237239671     Delta-E=       -0.000313560685 Rises=F Damp=F
 DIIS: error= 3.54D-04 at cycle   4 NSaved=   4.
 NSaved= 4 IEnMin= 4 EnMin= -155.036237239671     IErMin= 4 ErrMin= 3.54D-04
 ErrMax= 3.54D-04  0.00D+00 EMaxC= 1.00D-01 BMatC= 6.76D-06 BMatP= 2.79D-04
 IDIUse=3 WtCom= 9.96D-01 WtEn= 3.54D-03
 Coeff-Com: -0.145D-01 0.114D+00 0.200D+00 0.700D+00
 Coeff-En:   0.000D+00 0.000D+00 0.000D+00 0.100D+01
 Coeff:     -0.144D-01 0.114D+00 0.200D+00 0.701D+00
 Gap=     0.335 Goal=   None    Shift=    0.000
 RMSDP=4.34D-05 MaxDP=5.02D-04 DE=-3.14D-04 OVMax= 6.39D-04

 Cycle   5  Pass 0  IDiag  1:
 E= -155.036243580802     Delta-E=       -0.000006341132 Rises=F Damp=F
 DIIS: error= 8.72D-05 at cycle   5 NSaved=   5.
 NSaved= 5 IEnMin= 5 EnMin= -155.036243580802     IErMin= 5 ErrMin= 8.72D-05
 ErrMax= 8.72D-05  0.00D+00 EMaxC= 1.00D-01 BMatC= 4.08D-07 BMatP= 6.76D-06
 IDIUse=1 WtCom= 1.00D+00 WtEn= 0.00D+00
 Coeff-Com: -0.436D-02 0.227D-01 0.697D-01 0.369D+00 0.543D+00
 Coeff:     -0.436D-02 0.227D-01 0.697D-01 0.369D+00 0.543D+00
 Gap=     0.335 Goal=   None    Shift=    0.000
 RMSDP=9.88D-06 MaxDP=1.64D-04 DE=-6.34D-06 OVMax= 1.41D-04

 Initial convergence to 1.0D-05 achieved.  Increase integral accuracy.
 Cycle   6  Pass 1  IDiag  1:
 E= -155.036240795124     Delta-E=        0.000002785678 Rises=F Damp=F
 DIIS: error= 1.72D-05 at cycle   1 NSaved=   1.
 NSaved= 1 IEnMin= 1 EnMin= -155.036240795124     IErMin= 1 ErrMin= 1.72D-05
 ErrMax= 1.72D-05  0.00D+00 EMaxC= 1.00D-01 BMatC= 2.63D-08 BMatP= 2.63D-08
 IDIUse=1 WtCom= 1.00D+00 WtEn= 0.00D+00
 Coeff-Com:  0.100D+01
 Coeff:      0.100D+01
 Gap=     0.335 Goal=   None    Shift=    0.000
 RMSDP=9.88D-06 MaxDP=1.64D-04 DE= 2.79D-06 OVMax= 7.83D-05

 Cycle   7  Pass 1  IDiag  1:
 E= -155.036240776745     Delta-E=        0.000000018379 Rises=F Damp=F
 DIIS: error= 3.00D-05 at cycle   2 NSaved=   2.
 NSaved= 2 IEnMin= 1 EnMin= -155.036240795124     IErMin= 1 ErrMin= 1.72D-05
 ErrMax= 3.00D-05  0.00D+00 EMaxC= 1.00D-01 BMatC= 5.40D-08 BMatP= 2.63D-08
 IDIUse=1 WtCom= 1.00D+00 WtEn= 0.00D+00
 Coeff-Com:  0.591D+00 0.409D+00
 Coeff:      0.591D+00 0.409D+00
 Gap=     0.335 Goal=   None    Shift=    0.000
 RMSDP=3.10D-06 MaxDP=5.03D-05 DE= 1.84D-08 OVMax= 4.59D-05

 Cycle   8  Pass 1  IDiag  1:
 E= -155.036240815500     Delta-E=       -0.000000038754 Rises=F Damp=F
 DIIS: error= 1.97D-06 at cycle   3 NSaved=   3.
 NSaved= 3 IEnMin= 3 EnMin= -155.036240815500     IErMin= 3 ErrMin= 1.97D-06
 ErrMax= 1.97D-06  0.00D+00 EMaxC= 1.00D-01 BMatC= 3.00D-10 BMatP= 2.63D-08
 IDIUse=1 WtCom= 1.00D+00 WtEn= 0.00D+00
 Coeff-Com:  0.197D+00 0.156D+00 0.646D+00
 Coeff:      0.197D+00 0.156D+00 0.646D+00
 Gap=     0.335 Goal=   None    Shift=    0.000
 RMSDP=2.96D-07 MaxDP=2.61D-06 DE=-3.88D-08 OVMax= 4.22D-06

 Cycle   9  Pass 1  IDiag  1:
 E= -155.036240815739     Delta-E=       -0.000000000240 Rises=F Damp=F
 DIIS: error= 4.34D-07 at cycle   4 NSaved=   4.
 NSaved= 4 IEnMin= 4 EnMin= -155.036240815739     IErMin= 4 ErrMin= 4.34D-07
 ErrMax= 4.34D-07  0.00D+00 EMaxC= 1.00D-01 BMatC= 7.76D-12 BMatP= 3.00D-10
 IDIUse=1 WtCom= 1.00D+00 WtEn= 0.00D+00
 Coeff-Com:  0.438D-01 0.369D-01 0.196D+00 0.723D+00
 Coeff:      0.438D-01 0.369D-01 0.196D+00 0.723D+00
 Gap=     0.335 Goal=   None    Shift=    0.000
 RMSDP=6.90D-08 MaxDP=8.87D-07 DE=-2.40D-10 OVMax= 1.06D-06

 Cycle  10  Pass 1  IDiag  1:
 E= -155.036240815745     Delta-E=       -0.000000000006 Rises=F Damp=F
 DIIS: error= 2.33D-07 at cycle   5 NSaved=   5.
 NSaved= 5 IEnMin= 5 EnMin= -155.036240815745     IErMin= 5 ErrMin= 2.33D-07
 ErrMax= 2.33D-07  0.00D+00 EMaxC= 1.00D-01 BMatC= 1.97D-12 BMatP= 7.76D-12
 IDIUse=1 WtCom= 1.00D+00 WtEn= 0.00D+00
 Coeff-Com: -0.985D-02-0.656D-02-0.104D-01 0.340D+00 0.686D+00
 Coeff:     -0.985D-02-0.656D-02-0.104D-01 0.340D+00 0.686D+00
 Gap=     0.335 Goal=   None    Shift=    0.000
 RMSDP=2.54D-08 MaxDP=3.16D-07 DE=-5.85D-12 OVMax= 4.06D-07

 Cycle  11  Pass 1  IDiag  1:
 E= -155.036240815747     Delta-E=       -0.000000000002 Rises=F Damp=F
 DIIS: error= 1.08D-08 at cycle   6 NSaved=   6.
 NSaved= 6 IEnMin= 6 EnMin= -155.036240815747     IErMin= 6 ErrMin= 1.08D-08
 ErrMax= 1.08D-08  0.00D+00 EMaxC= 1.00D-01 BMatC= 1.09D-14 BMatP= 1.97D-12
 IDIUse=1 WtCom= 1.00D+00 WtEn= 0.00D+00
 Coeff-Com: -0.311D-02-0.220D-02-0.597D-02 0.665D-01 0.167D+00 0.778D+00
 Coeff:     -0.311D-02-0.220D-02-0.597D-02 0.665D-01 0.167D+00 0.778D+00
 Gap=     0.335 Goal=   None    Shift=    0.000
 RMSDP=2.70D-09 MaxDP=2.51D-08 DE=-1.71D-12 OVMax= 4.30D-08

 SCF Done:  E(RB3LYP) =  -155.036240816     A.U. after   11 cycles
            NFock= 11  Conv=0.27D-08     -V/T= 2.0092
 KE= 1.536294221011D+02 PE=-5.247284303624D+02 EE= 1.346731976350D+02
 Leave Link  502 at Mon Jun  1 23:59:17 2020, MaxMem=   805306368 cpu:              15.0 elap:               3.9
 (Enter /home/qslin/g16/l701.exe)
 ... and contract with generalized density number  0.
 Compute integral first derivatives.
 R6Disp: Adding Grimme-D3(BJ) dispersion energy 1st derivatives to the gradient.
 Leave Link  701 at Mon Jun  1 23:59:18 2020, MaxMem=   805306368 cpu:               0.4 elap:               0.1
 (Enter /home/qslin/g16/l702.exe)
 L702 exits ... SP integral derivatives will be done elsewhere.
 Leave Link  702 at Mon Jun  1 23:59:18 2020, MaxMem=   805306368 cpu:               0.1 elap:               0.0
 (Enter /home/qslin/g16/l703.exe)
 Integral derivatives from FoFJK, PRISM(SPDF).
 Compute integral first derivatives, UseDBF=F ICtDFT=           0.
 Calling FoFJK, ICntrl=      2127 FMM=F ISym2X=0 I1Cent= 0 IOpClX= 0 NMat=1 NMatS=1 NMatT=0.
 FoFJK:  IHMeth= 1 ICntrl=    2127 DoSepK=F KAlg= 0 I1Cent=           0 FoldK=F
 IRaf=         0 NMat=       1 IRICut=       1 DoRegI=T DoRafI=F ISym2E= 0 IDoP0=0 IntGTp=1.
 FoFCou: FMM=F IPFlag=           0 FMFlag=      100000 FMFlg1=         800
         NFxFlg=           0 DoJE=F BraDBF=F KetDBF=F FulRan=T
         wScrn=  0.000000 ICntrl=      2127 IOpCl=  0 I1Cent=           0 NGrid=           0
         NMat0=    1 NMatS0=      1 NMatT0=    0 NMatD0=    1 NMtDS0=    0 NMtDT0=    0
 Symmetry not used in FoFCou.
 Leave Link  703 at Mon Jun  1 23:59:19 2020, MaxMem=   805306368 cpu:               4.6 elap:               1.2
 (Enter /home/qslin/g16/l716.exe)
 Dipole        =-9.29214372D-02 6.01400136D-01 1.99592435D-02
 ***** Axes restored to original set *****
 -------------------------------------------------------------------
 Center     Atomic                   Forces (Hartrees/Bohr)
 Number     Number              X              Y              Z
 -------------------------------------------------------------------
      1        6          -0.000577475    0.001814381    0.002011165
      2        1          -0.001287568   -0.001163443    0.000022993
      3        1           0.001602591   -0.000787317    0.000194369
      4        1          -0.000306013    0.000827980   -0.001346619
      5        6           0.001131402   -0.003267754   -0.000440357
      6        1           0.000672865    0.002288762   -0.000408350
      7        1          -0.002039940    0.000302587    0.000186873
      8        8           0.000666653   -0.000233564   -0.000492169
      9        1           0.000137486    0.000218369    0.000272094
 -------------------------------------------------------------------
 Cartesian Forces:  Max     0.003267754 RMS     0.001212291
 Leave Link  716 at Mon Jun  1 23:59:19 2020, MaxMem=   805306368 cpu:               0.1 elap:               0.0
 (Enter /home/qslin/g16/l103.exe)

 GradGradGradGradGradGradGradGradGradGradGradGradGradGradGradGradGradGrad
 Berny optimization.
 Using GEDIIS/GDIIS optimizer.
 FormGI is forming the generalized inverse of G from B-inverse, IUseBI=4.
 Internal  Forces:  Max     0.001998887 RMS     0.000768728
 Search for a local minimum.
 Step number   2 out of a maximum of   43
 All quantities printed in internal units (Hartrees-Bohrs-Radians)
 RMS Force = .76873D-03 SwitMx=.10000D-02 MixMth= 2
 Mixed Optimization -- En-DIIS/RFO-DIIS
 Update second derivatives using D2CorX and points    1    2
 DE= -4.06D-03 DEPred=-4.05D-03 R= 1.00D+00
 TightC=F SS=  1.41D+00  RLast= 7.66D-01 DXNew= 5.0454D-01 2.2967D+00
 Trust test= 1.00D+00 RLast= 7.66D-01 DXMaxT set to 5.05D-01
 ITU=  1  0
 Use linear search instead of GDIIS.
     Eigenvalues ---   -0.00319   0.00261   0.04805   0.04879   0.05189
     Eigenvalues ---    0.06768   0.10724   0.12839   0.13951   0.14758
     Eigenvalues ---    0.16405   0.16959   0.24862   0.31180   0.32930
     Eigenvalues ---    0.37641   0.38060   0.39240   0.39491   0.40364
     Eigenvalues ---    0.53970
 Eigenvalue     1 is  -3.19D-03 should be greater than     0.000000 Eigenvector:
                          D3        D2        D9        D1        D6
   1                   -0.34008  -0.33667  -0.33487  -0.33347  -0.33210
                          D8        D5        D7        D4        D10
   1                   -0.33146  -0.32869  -0.32825  -0.32549   0.04522
 RFO step:  Lambda=-5.24820828D-03 EMin=-3.19439911D-03
 Quartic linear search produced a step of  0.45405.
 Iteration  1 RMS(Cart)=  0.09593473 RMS(Int)=  0.12851278
 Iteration  2 RMS(Cart)=  0.09187026 RMS(Int)=  0.02444571
 Iteration  3 RMS(Cart)=  0.02175038 RMS(Int)=  0.00031133
 Iteration  4 RMS(Cart)=  0.00029351 RMS(Int)=  0.00014074
 Iteration  5 RMS(Cart)=  0.00000004 RMS(Int)=  0.00014074
 ITry= 1 IFail=0 DXMaxC= 4.83D-01 DCOld= 1.00D+10 DXMaxT= 5.05D-01 DXLimC= 3.00D+00 Rises=F
 Variable       Old X    -DE/DX   Delta X   Delta X   Delta X     New X
                                 (Linear)    (Quad)   (Total)
    R1        2.06354   0.00136   0.01886  -0.02129  -0.00243   2.06111
    R2        2.06395   0.00127   0.01904  -0.02245  -0.00341   2.06054
    R3        2.06478   0.00134   0.01942  -0.02149  -0.00207   2.06270
    R4        2.90073  -0.00112  -0.00429   0.00040  -0.00389   2.89684
    R5        2.07512   0.00200   0.02412  -0.02734  -0.00322   2.07190
    R6        2.07554   0.00191   0.02431  -0.02687  -0.00256   2.07298
    R7        2.69800  -0.00008  -0.00196   0.00103  -0.00093   2.69707
    R8        1.83097   0.00035   0.00764  -0.00909  -0.00145   1.82952
    A1        1.88856   0.00004  -0.01002   0.01048   0.00052   1.88908
    A2        1.88844  -0.00027  -0.01008   0.01024   0.00023   1.88866
    A3        1.89535   0.00008  -0.00694   0.00830   0.00143   1.89678
    A4        1.88571   0.00008  -0.01132   0.01596   0.00408   1.88979
    A5        1.95940  -0.00043   0.02214  -0.01367   0.00820   1.96760
    A6        1.94440   0.00050   0.01533  -0.02944  -0.01439   1.93001
    A7        1.92561   0.00011   0.00680  -0.01138  -0.00454   1.92107
    A8        1.92918  -0.00034   0.00842  -0.00801   0.00045   1.92963
    A9        1.88241  -0.00016  -0.01281   0.01562   0.00287   1.88529
   A10        1.87087  -0.00010  -0.01805   0.01778  -0.00028   1.87059
   A11        1.92564   0.00014   0.00682  -0.01007  -0.00321   1.92244
   A12        1.93063   0.00035   0.00908  -0.00455   0.00458   1.93521
   A13        1.88074  -0.00008  -0.01380   0.01636   0.00256   1.88330
    D1        2.39524   0.00075   0.12039   0.32898   0.44935   2.84459
    D2       -1.82174   0.00049   0.10759   0.33885   0.44645  -1.37529
    D3        0.29086   0.00062   0.11586   0.33832   0.45417   0.74504
    D4        0.30780   0.00092   0.12355   0.31891   0.44261   0.75041
    D5        2.37401   0.00065   0.11075   0.32878   0.43971   2.81371
    D6       -1.79657   0.00078   0.11902   0.32825   0.44743  -1.34914
    D7       -1.80983   0.00077   0.11300   0.32911   0.44193  -1.36789
    D8        0.25638   0.00051   0.10020   0.33899   0.43903   0.69541
    D9        2.36898   0.00064   0.10847   0.33845   0.44676   2.81574
   D10        3.10559   0.00006  -0.01547  -0.04337  -0.05884   3.04675
   D11        1.00123  -0.00006  -0.01999  -0.03321  -0.05318   0.94805
   D12       -1.06590  -0.00024  -0.00761  -0.04605  -0.05367  -1.11957
         Item               Value     Threshold  Converged?
 Maximum Force            0.001999     0.000450     NO 
 RMS     Force            0.000769     0.000300     NO 
 Maximum Displacement     0.482989     0.001800     NO 
 RMS     Displacement     0.207058     0.001200     NO 
 Predicted change in Energy=-5.541823D-03
 Lowest energy point so far.  Saving SCF results.
 GradGradGradGradGradGradGradGradGradGradGradGradGradGradGradGradGradGrad

 Leave Link  103 at Mon Jun  1 23:59:19 2020, MaxMem=   805306368 cpu:               0.1 elap:               0.0
[...]
 Number     Number       Type             X           Y           Z
 ---------------------------------------------------------------------
      1          6           0       -0.004071   -0.214788   -1.225975
      2          1           0       -0.599609   -1.132890   -1.195767
      3          1           0        1.035936   -0.488276   -1.431214
      4          1           0       -0.369534    0.413273   -2.045786
      5          6           0       -0.103736    0.522031    0.098543
      6          1           0        0.485956    1.452539    0.055695
      7          1           0       -1.151030    0.807495    0.291225
      8          8           0        0.385083   -0.346997    1.116027
      9          1           0        0.322403    0.121283    1.961936
 ---------------------------------------------------------------------
                    Distance matrix (angstroms):
                    1          2          3          4          5
     1  C    0.000000
     2  H    1.094756   0.000000
     3  H    1.094775   1.773688   0.000000
     4  H    1.095498   1.779351   1.779279   0.000000
     5  C    1.518942   2.158679   2.158641   2.163475   0.000000
     6  H    2.159348   3.070677   2.506021   2.495628   1.102460
     7  H    2.159276   2.506053   3.070609   2.495550   1.102470
     8  O    2.377792   2.632801   2.632870   3.338341   1.424580
     9  H    3.222159   3.520532   3.520534   4.077484   1.953056
                    6          7          8          9
     6  H    0.000000
     7  H    1.775185   0.000000
     8  O    2.091127   2.091123   0.000000
     9  H    2.330826   2.330916   0.968905   0.000000
 Stoichiometry    C2H6O
 Framework group  C1[X(C2H6O)]
 Deg. of freedom    21
 Full point group                 C1      NOp   1
 RotChk:  IX=0 Diff= 3.63D-15
 Largest Abelian subgroup         C1      NOp   1
 Largest concise Abelian subgroup C1      NOp   1
                         Standard orientation:                         
 ---------------------------------------------------------------------
 Center     Atomic      Atomic             Coordinates (Angstroms)
 Number     Number       Type             X           Y           Z
 ---------------------------------------------------------------------
      1          6           0        1.221728   -0.222141   -0.000006
      2          1           0        1.286275   -0.860885   -0.886759
      3          1           0        1.286330   -0.860658    0.886929
      4          1           0        2.075007    0.464904   -0.000037
      5          6           0       -0.086828    0.549134   -0.000006
      6          1           0       -0.138227    1.201083    0.887539
      7          1           0       -0.138161    1.200979   -0.887645
      8          8           0       -1.149423   -0.399719   -0.000002
      9          1           0       -1.985239    0.090372    0.000061
 ---------------------------------------------------------------------
 Rotational constants (GHZ):          34.9446611           9.3687916           8.1435830
 Leave Link  202 at Tue Jun  2 00:00:27 2020, MaxMem=   805306368 cpu:               0.0 elap:               0.0
 (Enter /home/qslin/g16/l301.exe)
 Standard basis: 6-311G(d,p) (5D, 7F)
 Ernie: Thresh=  0.10000D-02 Tol=  0.10000D-05 Strict=F.
 There are    93 symmetry adapted cartesian basis functions of A   symmetry.
 There are    90 symmetry adapted basis functions of A   symmetry.
    90 basis functions,   144 primitive gaussians,    93 cartesian basis functions
    13 alpha electrons       13 beta electrons
       nuclear repulsion energy        81.6432588942 Hartrees.
 IExCor= 4336 DFT=T Ex+Corr=M062X ExCW=0 ScaHFX=  0.540000
 ScaDFX=  1.000000  1.000000  1.000000  1.000000 ScalE2=  1.000000  1.000000
 IRadAn=      5 IRanWt=     -1 IRanGd=            0 ICorTp=0 IEmpDi=131
 NAtoms=    9 NActive=    9 NUniq=    9 SFac= 1.00D+00 NAtFMM=   60 NAOKFM=F Big=F
 Integral buffers will be    131072 words long.
 Raffenetti 2 integral format.
 Two-electron integral symmetry is turned on.
 R6Disp:  Grimme-D3 Dispersion energy=       -0.0000339006 Hartrees.
 Nuclear repulsion after empirical dispersion term =       81.6432249936 Hartrees.
 Leave Link  301 at Tue Jun  2 00:00:27 2020, MaxMem=   805306368 cpu:               0.1 elap:               0.0
 (Enter /home/qslin/g16/l302.exe)
 NPDir=0 NMtPBC=     1 NCelOv=     1 NCel=       1 NClECP=     1 NCelD=      1
         NCelK=      1 NCelE2=     1 NClLst=     1 CellRange=     0.0.
 One-electron integrals computed using PRISM.
 One-electron integral symmetry used in STVInt
 NBasis=    90 RedAO= T EigKep=  3.08D-03  NBF=    90
 NBsUse=    90 1.00D-06 EigRej= -1.00D+00 NBFU=    90
 Precomputing XC quadrature grid using
 IXCGrd= 4 IRadAn=           5 IRanWt=          -1 IRanGd=           0 AccXCQ= 0.00D+00.
 Generated NRdTot=       0 NPtTot=           0 NUsed=           0 NTot=          32
 NSgBfM=    93    93    93    93    93 MxSgAt=     9 MxSgA2=     9.
 Leave Link  302 at Tue Jun  2 00:00:27 2020, MaxMem=   805306368 cpu:               0.7 elap:               0.2
 (Enter /home/qslin/g16/l303.exe)
 DipDrv:  MaxL=1.
 Leave Link  303 at Tue Jun  2 00:00:27 2020, MaxMem=   805306368 cpu:               0.1 elap:               0.0
 (Enter /home/qslin/g16/l401.exe)
 Initial guess from the checkpoint file:  "EtOH-R.chk"
 B after Tr=    -0.000000   -0.000000   -0.000000
         Rot=    1.000000    0.000000    0.000000    0.000000 Ang=   0.00 deg.
 Guess basis will be translated and rotated to current coordinates.
 JPrj=2 DoOrth=T DoCkMO=T.
 Leave Link  401 at Tue Jun  2 00:00:27 2020, MaxMem=   805306368 cpu:               0.3 elap:               0.1
 (Enter /home/qslin/g16/l502.exe)
 Keep R1 ints in memory in canonical form, NReq=12058754.
 FoFCou: FMM=F IPFlag=           0 FMFlag=           0 FMFlg1=           0
         NFxFlg=           0 DoJE=F BraDBF=F KetDBF=F FulRan=T
         wScrn=  0.000000 ICntrl=       600 IOpCl=  0 I1Cent=           0 NGrid=           0
         NMat0=    1 NMatS0=   4095 NMatT0=    0 NMatD0=    1 NMtDS0=    0 NMtDT0=    0
 Symmetry not used in FoFCou.
 Two-electron integral symmetry not used.
 Closed shell SCF:
 Using DIIS extrapolation, IDIIS=  1040.
 NGot=   805306368 LenX=   796900814 LenY=   796891724
 Requested convergence on RMS density matrix=1.00D-08 within 128 cycles.
 Requested convergence on MAX density matrix=1.00D-06.
 Requested convergence on             energy=1.00D-06.
 No special actions if energy rises.

 Cycle   1  Pass 1  IDiag  1:
 E= -154.983028665500    
 DIIS: error= 3.63D-02 at cycle   1 NSaved=   1.
 NSaved= 1 IEnMin= 1 EnMin= -154.983028665500     IErMin= 1 ErrMin= 3.63D-02
 ErrMax= 3.63D-02  0.00D+00 EMaxC= 1.00D-01 BMatC= 6.52D-02 BMatP= 6.52D-02
 IDIUse=3 WtCom= 6.37D-01 WtEn= 3.63D-01
 Coeff-Com:  0.100D+01
 Coeff-En:   0.100D+01
 Coeff:      0.100D+01
 Gap=     0.739 Goal=   None    Shift=    0.000
 GapD=    0.739 DampG=2.000 DampE=0.500 DampFc=1.0000 IDamp=-1.
 RMSDP=1.83D-03 MaxDP=2.63D-02              OVMax= 2.70D-02

 Cycle   2  Pass 1  IDiag  1:
 E= -155.006615007026     Delta-E=       -0.023586341525 Rises=F Damp=F
 DIIS: error= 1.76D-03 at cycle   2 NSaved=   2.
 NSaved= 2 IEnMin= 2 EnMin= -155.006615007026     IErMin= 2 ErrMin= 1.76D-03
 ErrMax= 1.76D-03  0.00D+00 EMaxC= 1.00D-01 BMatC= 3.41D-04 BMatP= 6.52D-02
 IDIUse=3 WtCom= 9.82D-01 WtEn= 1.76D-02
 Coeff-Com: -0.189D-01 0.102D+01
 Coeff-En:   0.000D+00 0.100D+01
 Coeff:     -0.186D-01 0.102D+01
 Gap=     0.418 Goal=   None    Shift=    0.000
 RMSDP=2.86D-04 MaxDP=5.29D-03 DE=-2.36D-02 OVMax= 7.14D-03

 Cycle   3  Pass 1  IDiag  1:
 E= -155.006823198181     Delta-E=       -0.000208191156 Rises=F Damp=F
 DIIS: error= 1.76D-03 at cycle   3 NSaved=   3.
 NSaved= 3 IEnMin= 3 EnMin= -155.006823198181     IErMin= 3 ErrMin= 1.76D-03
 ErrMax= 1.76D-03  0.00D+00 EMaxC= 1.00D-01 BMatC= 1.71D-04 BMatP= 3.41D-04
 IDIUse=3 WtCom= 9.82D-01 WtEn= 1.76D-02
 Coeff-Com: -0.101D-01 0.414D+00 0.596D+00
 Coeff-En:   0.000D+00 0.618D-01 0.938D+00
 Coeff:     -0.991D-02 0.408D+00 0.602D+00
 Gap=     0.414 Goal=   None    Shift=    0.000
 RMSDP=1.10D-04 MaxDP=2.10D-03 DE=-2.08D-04 OVMax= 2.71D-03

 Cycle   4  Pass 1  IDiag  1:
 E= -155.006956937520     Delta-E=       -0.000133739339 Rises=F Damp=F
 DIIS: error= 2.89D-04 at cycle   4 NSaved=   4.
 NSaved= 4 IEnMin= 4 EnMin= -155.006956937520     IErMin= 4 ErrMin= 2.89D-04
 ErrMax= 2.89D-04  0.00D+00 EMaxC= 1.00D-01 BMatC= 8.49D-06 BMatP= 1.71D-04
 IDIUse=3 WtCom= 9.97D-01 WtEn= 2.89D-03
 Coeff-Com: -0.153D-02-0.191D-02 0.166D+00 0.837D+00
 Coeff-En:   0.000D+00 0.000D+00 0.000D+00 0.100D+01
 Coeff:     -0.152D-02-0.191D-02 0.166D+00 0.838D+00
 Gap=     0.415 Goal=   None    Shift=    0.000
 RMSDP=3.04D-05 MaxDP=8.13D-04 DE=-1.34D-04 OVMax= 8.05D-04

 Cycle   5  Pass 1  IDiag  1:
 E= -155.006963269594     Delta-E=       -0.000006332074 Rises=F Damp=F
 DIIS: error= 1.23D-04 at cycle   5 NSaved=   5.
 NSaved= 5 IEnMin= 5 EnMin= -155.006963269594     IErMin= 5 ErrMin= 1.23D-04
 ErrMax= 1.23D-04  0.00D+00 EMaxC= 1.00D-01 BMatC= 9.70D-07 BMatP= 8.49D-06
 IDIUse=3 WtCom= 9.99D-01 WtEn= 1.23D-03
 Coeff-Com: -0.393D-03-0.128D-01 0.525D-01 0.370D+00 0.591D+00
 Coeff-En:   0.000D+00 0.000D+00 0.000D+00 0.000D+00 0.100D+01
 Coeff:     -0.392D-03-0.128D-01 0.524D-01 0.370D+00 0.591D+00
 Gap=     0.414 Goal=   None    Shift=    0.000
 RMSDP=7.63D-06 MaxDP=1.58D-04 DE=-6.33D-06 OVMax= 2.08D-04

 Cycle   6  Pass 1  IDiag  1:
 E= -155.006963988389     Delta-E=       -0.000000718795 Rises=F Damp=F
 DIIS: error= 1.92D-05 at cycle   6 NSaved=   6.
 NSaved= 6 IEnMin= 6 EnMin= -155.006963988389     IErMin= 6 ErrMin= 1.92D-05
 ErrMax= 1.92D-05  0.00D+00 EMaxC= 1.00D-01 BMatC= 4.20D-08 BMatP= 9.70D-07
 IDIUse=1 WtCom= 1.00D+00 WtEn= 0.00D+00
 Coeff-Com:  0.133D-03-0.196D-02-0.161D-01-0.569D-01 0.121D+00 0.954D+00
 Coeff:      0.133D-03-0.196D-02-0.161D-01-0.569D-01 0.121D+00 0.954D+00
 Gap=     0.414 Goal=   None    Shift=    0.000
 RMSDP=2.92D-06 MaxDP=4.95D-05 DE=-7.19D-07 OVMax= 9.75D-05

 Cycle   7  Pass 1  IDiag  1:
 E= -155.006964037922     Delta-E=       -0.000000049532 Rises=F Damp=F
 DIIS: error= 3.40D-06 at cycle   7 NSaved=   7.
 NSaved= 7 IEnMin= 7 EnMin= -155.006964037922     IErMin= 7 ErrMin= 3.40D-06
 ErrMax= 3.40D-06  0.00D+00 EMaxC= 1.00D-01 BMatC= 5.72D-10 BMatP= 4.20D-08
 IDIUse=1 WtCom= 1.00D+00 WtEn= 0.00D+00
 Coeff-Com:  0.222D-04 0.179D-03-0.354D-02-0.162D-01 0.198D-02 0.137D+00
 Coeff-Com:  0.880D+00
 Coeff:      0.222D-04 0.179D-03-0.354D-02-0.162D-01 0.198D-02 0.137D+00
 Coeff:      0.880D+00
 Gap=     0.414 Goal=   None    Shift=    0.000
 RMSDP=3.59D-07 MaxDP=5.34D-06 DE=-4.95D-08 OVMax= 1.21D-05

 Cycle   8  Pass 1  IDiag  1:
 E= -155.006964038638     Delta-E=       -0.000000000716 Rises=F Damp=F
 DIIS: error= 4.67D-07 at cycle   8 NSaved=   8.
 NSaved= 8 IEnMin= 8 EnMin= -155.006964038638     IErMin= 8 ErrMin= 4.67D-07
 ErrMax= 4.67D-07  0.00D+00 EMaxC= 1.00D-01 BMatC= 2.24D-11 BMatP= 5.72D-10
 IDIUse=1 WtCom= 1.00D+00 WtEn= 0.00D+00
 Coeff-Com: -0.550D-05 0.113D-03 0.541D-03 0.230D-02-0.559D-02-0.438D-01
 Coeff-Com:  0.613D-02 0.104D+01
 Coeff:     -0.550D-05 0.113D-03 0.541D-03 0.230D-02-0.559D-02-0.438D-01
 Coeff:      0.613D-02 0.104D+01
 Gap=     0.414 Goal=   None    Shift=    0.000
 RMSDP=9.61D-08 MaxDP=1.70D-06 DE=-7.16D-10 OVMax= 4.29D-06

 Cycle   9  Pass 1  IDiag  1:
 E= -155.006964038681     Delta-E=       -0.000000000043 Rises=F Damp=F
 DIIS: error= 1.07D-07 at cycle   9 NSaved=   9.
 NSaved= 9 IEnMin= 9 EnMin= -155.006964038681     IErMin= 9 ErrMin= 1.07D-07
 ErrMax= 1.07D-07  0.00D+00 EMaxC= 1.00D-01 BMatC= 1.06D-12 BMatP= 2.24D-11
 IDIUse=1 WtCom= 1.00D+00 WtEn= 0.00D+00
 Coeff-Com: -0.123D-05 0.102D-04 0.136D-03 0.660D-03-0.793D-03-0.826D-02
 Coeff-Com: -0.234D-01 0.145D+00 0.887D+00
 Coeff:     -0.123D-05 0.102D-04 0.136D-03 0.660D-03-0.793D-03-0.826D-02
 Coeff:     -0.234D-01 0.145D+00 0.887D+00
 Gap=     0.414 Goal=   None    Shift=    0.000
 RMSDP=1.43D-08 MaxDP=2.54D-07 DE=-4.34D-11 OVMax= 6.28D-07

 Cycle  10  Pass 1  IDiag  1:
 E= -155.006964038684     Delta-E=       -0.000000000003 Rises=F Damp=F
 DIIS: error= 5.05D-08 at cycle  10 NSaved=  10.
 NSaved=10 IEnMin=10 EnMin= -155.006964038684     IErMin=10 ErrMin= 5.05D-08
 ErrMax= 5.05D-08  0.00D+00 EMaxC= 1.00D-01 BMatC= 2.16D-13 BMatP= 1.06D-12
 IDIUse=1 WtCom= 1.00D+00 WtEn= 0.00D+00
 Coeff-Com:  0.442D-07-0.660D-05 0.171D-05 0.347D-04 0.190D-03 0.912D-03
 Coeff-Com: -0.919D-02-0.362D-01 0.311D+00 0.734D+00
 Coeff:      0.442D-07-0.660D-05 0.171D-05 0.347D-04 0.190D-03 0.912D-03
 Coeff:     -0.919D-02-0.362D-01 0.311D+00 0.734D+00
 Gap=     0.414 Goal=   None    Shift=    0.000
 RMSDP=4.89D-09 MaxDP=9.21D-08 DE=-2.90D-12 OVMax= 2.03D-07

 SCF Done:  E(RM062X) =  -155.006964039     A.U. after   10 cycles
            NFock= 10  Conv=0.49D-08     -V/T= 2.0037
 KE= 1.544322340084D+02 PE=-5.259762289546D+02 EE= 1.348938059140D+02
 Leave Link  502 at Tue Jun  2 00:00:43 2020, MaxMem=   805306368 cpu:              64.1 elap:              16.2
 (Enter /home/qslin/g16/l601.exe)
 Copying SCF densities to generalized density rwf, IOpCl= 0 IROHF=0.

 **********************************************************************

            Population analysis using the SCF density.

 **********************************************************************

 Orbital symmetries:
       Occupied  (A) (A) (A) (A) (A) (A) (A) (A) (A) (A) (A) (A)
                 (A)
       Virtual   (A) (A) (A) (A) (A) (A) (A) (A) (A) (A) (A) (A)
                 (A) (A) (A) (A) (A) (A) (A) (A) (A) (A) (A) (A)
                 (A) (A) (A) (A) (A) (A) (A) (A) (A) (A) (A) (A)
                 (A) (A) (A) (A) (A) (A) (A) (A) (A) (A) (A) (A)
                 (A) (A) (A) (A) (A) (A) (A) (A) (A) (A) (A) (A)
                 (A) (A) (A) (A) (A) (A) (A) (A) (A) (A) (A) (A)
                 (A) (A) (A) (A) (A)
 The electronic state is 1-A.
 Alpha  occ. eigenvalues --  -19.60715 -10.58102 -10.52225  -1.13304  -0.84187
 Alpha  occ. eigenvalues --   -0.69301  -0.58845  -0.53618  -0.47041  -0.44345
 Alpha  occ. eigenvalues --   -0.42922  -0.39619  -0.34223
 Alpha virt. eigenvalues --    0.07219   0.10407   0.13302   0.13544   0.15733
 Alpha virt. eigenvalues --    0.18127   0.23643   0.26132   0.34702   0.35100
 Alpha virt. eigenvalues --    0.40477   0.43055   0.45899   0.51576   0.58616
 Alpha virt. eigenvalues --    0.61330   0.62503   0.64695   0.64967   0.66224
 Alpha virt. eigenvalues --    0.78343   0.85054   0.90287   0.91874   0.99040
 Alpha virt. eigenvalues --    1.09506   1.18258   1.30922   1.35302   1.40730
 Alpha virt. eigenvalues --    1.41353   1.50766   1.51521   1.53103   1.54633
 Alpha virt. eigenvalues --    1.55717   1.62063   1.67601   1.71470   1.76765
 Alpha virt. eigenvalues --    1.78154   1.83978   1.98215   1.99466   2.03628
 Alpha virt. eigenvalues --    2.09848   2.15749   2.25588   2.31748   2.40435
 Alpha virt. eigenvalues --    2.41068   2.45166   2.51945   2.52384   2.57125
 Alpha virt. eigenvalues --    2.60573   2.61121   2.63147   2.73750   2.83721
 Alpha virt. eigenvalues --    2.96935   3.17216   3.21129   3.26508   3.36585
 Alpha virt. eigenvalues --    3.81203   3.81443   3.84777   3.86220   3.97767
 Alpha virt. eigenvalues --    4.25281   4.99571   5.36353   5.72712  23.86223
 Alpha virt. eigenvalues --   24.00440  49.99733
          Condensed to atoms (all electrons):
               1          2          3          4          5          6
     1  C    5.016091   0.398262   0.398258   0.389663   0.334774  -0.042369
     2  H    0.398262   0.546576  -0.032944  -0.024023  -0.035990   0.010483
     3  H    0.398258  -0.032944   0.546609  -0.024033  -0.036000  -0.012053
     4  H    0.389663  -0.024023  -0.024033   0.559706  -0.032175  -0.001239
     5  C    0.334774  -0.035990  -0.036000  -0.032175   4.827418   0.398209
     6  H   -0.042369   0.010483  -0.012053  -0.001239   0.398209   0.627458
     7  H   -0.042385  -0.012051   0.010485  -0.001241   0.398209  -0.055491
     8  O   -0.059773   0.005047   0.005047   0.004032   0.256565  -0.035706
     9  H    0.009274  -0.000330  -0.000329  -0.000699  -0.033745  -0.005076
               7          8          9
     1  C   -0.042385  -0.059773   0.009274
     2  H   -0.012051   0.005047  -0.000330
     3  H    0.010485   0.005047  -0.000329
     4  H   -0.001241   0.004032  -0.000699
     5  C    0.398209   0.256565  -0.033745
     6  H   -0.055491  -0.035706  -0.005076
     7  H    0.627474  -0.035708  -0.005073
     8  O   -0.035708   7.979134   0.308278
     9  H   -0.005073   0.308278   0.473228
 Mulliken charges:
               1
     1  C   -0.401796
     2  H    0.144971
     3  H    0.144960
     4  H    0.130009
     5  C   -0.077265
     6  H    0.115784
     7  H    0.115781
     8  O   -0.426916
     9  H    0.254472
 Sum of Mulliken charges =  -0.00000
 Mulliken charges with hydrogens summed into heavy atoms:
               1
     1  C    0.018144
     5  C    0.154300
     8  O   -0.172444
 Electronic spatial extent (au):  <R**2>=            193.9746
 Charge=             -0.0000 electrons
 Dipole moment (field-independent basis, Debye):
    X=             -0.2314    Y=              1.6508    Z=              0.0001  Tot=              1.6669
 Quadrupole moment (field-independent basis, Debye-Ang):
   XX=            -16.9933   YY=            -20.6545   ZZ=            -20.1376
   XY=             -1.9406   XZ=             -0.0003   YZ=              0.0003
 Traceless Quadrupole moment (field-independent basis, Debye-Ang):
   XX=              2.2685   YY=             -1.3927   ZZ=             -0.8758
   XY=             -1.9406   XZ=             -0.0003   YZ=              0.0003
 Octapole moment (field-independent basis, Debye-Ang**2):
  XXX=            -16.2641  YYY=             -0.6233  ZZZ=              0.0002  XYY=             -0.8115
  XXY=              2.7630  XXZ=              0.0007  XZZ=             -1.5103  YZZ=             -0.3412
  YYZ=             -0.0001  XYZ=              0.0000
 Hexadecapole moment (field-independent basis, Debye-Ang**3):
 XXXX=           -133.3710 YYYY=            -58.7532 ZZZZ=            -33.5579 XXXY=              0.2855
 XXXZ=             -0.0011 YYYX=              1.1478 YYYZ=              0.0011 ZZZX=              0.0001
 ZZZY=              0.0001 XXYY=            -36.3711 XXZZ=            -33.1302 YYZZ=            -13.8985
 XXYZ=              0.0003 YYXZ=             -0.0006 ZZXY=             -0.8365
 N-N= 8.164322499358D+01 E-N=-5.259762286509D+02  KE= 1.544322340084D+02
 No NMR shielding tensors so no spin-rotation constants.
 Leave Link  601 at Tue Jun  2 00:00:43 2020, MaxMem=   805306368 cpu:               0.4 elap:               0.1
 (Enter /home/qslin/g16/l9999.exe)
 1\1\GINC-QSLIN\SP\RM062X\6-311G(d,p)\C2H6O1\QSLIN\02-Jun-2020\0\\#p m0
 62x/6-311g** em=gd3 geom=allcheck guess=read\\optimize transition stat
 e and frequency\\0,1\C,0,-0.0040705671,-0.2147881046,-1.2259748183\H,0
 ,-0.5996093566,-1.1328902919,-1.1957669089\H,0,1.0359355242,-0.4882763
 669,-1.4312137083\H,0,-0.3695338182,0.4132733828,-2.0457861266\C,0,-0.
 1037360946,0.5220314191,0.0985434811\H,0,0.4859558365,1.4525392919,0.0
 556948076\H,0,-1.1510304711,0.8074945748,0.291224927\O,0,0.3850834392,
 -0.3469973254,1.1160270481\H,0,0.3224031577,0.1212829801,1.9619362883\
 \Version=ES64L-G16RevA.03\State=1-A\HF=-155.006964\RMSD=4.893e-09\Dipo
 le=-0.2224018,0.606325,0.1140968\Quadrupole=-0.8006366,-0.9463754,1.74
 70119,0.3109931,-0.1869914,1.3512663\PG=C01 [X(C2H6O1)]\\@


 ART, GLORY, FREEDOM FAIL, BUT NATURE STILL IS FAIR.

                                           -- BYRON
 Job cpu time:       0 days  0 hours  1 minutes  9.2 seconds.
 Elapsed time:       0 days  0 hours  0 minutes 17.4 seconds.
 File lengths (MBytes):  RWF=      6 Int=      0 D2E=      0 Chk=      2 Scr=      1
 Normal termination of Gaussian 16 at Tue Jun  2 00:00:44 2020.
