 Entering Gaussian System, Link 0=g16
 Input=EtOH-P2.gjf
 Output=EtOH-P2.log
 Initial command:
 /home/qslin/g16/l1.exe "/mnt/d/G16W/Scratch/Gau-1428.inp" -scrdir="/mnt/d/G16W/Scratch/"
 Default is to use a total of   4 processors:
                                4 via shared-memory
                                1 via Linda
 Entering Link 1 = /home/qslin/g16/l1.exe PID=      1430.
  
 Copyright (c) 1988,1990,1992,1993,1995,1998,2003,2009,2016,
            Gaussian, Inc.  All Rights Reserved.
  
 This is part of the Gaussian(R) 16 program.  It is based on
 the Gaussian(R) 09 system (copyright 2009, Gaussian, Inc.),
 the Gaussian(R) 03 system (copyright 2003, Gaussian, Inc.),
 the Gaussian(R) 98 system (copyright 1998, Gaussian, Inc.),
 the Gaussian(R) 94 system (copyright 1995, Gaussian, Inc.),
 the Gaussian 92(TM) system (copyright 1992, Gaussian, Inc.),
 the Gaussian 90(TM) system (copyright 1990, Gaussian, Inc.),
 the Gaussian 88(TM) system (copyright 1988, Gaussian, Inc.),
 the Gaussian 86(TM) system (copyright 1986, Carnegie Mellon
 University), and the Gaussian 82(TM) system (copyright 1983,
 Carnegie Mellon University). Gaussian is a federally registered
 trademark of Gaussian, Inc.
  
 This software contains proprietary and confidential information,
 including trade secrets, belonging to Gaussian, Inc.
  
 This software is provided under written license and may be
 used, copied, transmitted, or stored only in accord with that
 written license.
  
 The following legend is applicable only to US Government
 contracts under FAR:
  
                    RESTRICTED RIGHTS LEGEND
  
 Use, reproduction and disclosure by the US Government is
 subject to restrictions as set forth in subparagraphs (a)
 and (c) of the Commercial Computer Software - Restricted
 Rights clause in FAR 52.227-19.
  
 Gaussian, Inc.
 340 Quinnipiac St., Bldg. 40, Wallingford CT 06492
  
  
 ---------------------------------------------------------------
 Warning -- This program may not be used in any manner that
 competes with the business of Gaussian, Inc. or will provide
 assistance to any competitor of Gaussian, Inc.  The licensee
 of this program is prohibited from giving any competitor of
 Gaussian, Inc. access to this program.  By using this program,
 the user acknowledges that Gaussian, Inc. is engaged in the
 business of creating and licensing software in the field of
 computational chemistry and represents and warrants to the
 licensee that it is not a competitor of Gaussian, Inc. and that
 it will not use this program in any manner prohibited above.
 ---------------------------------------------------------------
  

 Cite this work as:
 Gaussian 16, Revision A.03,
 M. J. Frisch, G. W. Trucks, H. B. Schlegel, G. E. Scuseria, 
 M. A. Robb, J. R. Cheeseman, G. Scalmani, V. Barone, 
 G. A. Petersson, H. Nakatsuji, X. Li, M. Caricato, A. V. Marenich, 
 J. Bloino, B. G. Janesko, R. Gomperts, B. Mennucci, H. P. Hratchian, 
 J. V. Ortiz, A. F. Izmaylov, J. L. Sonnenberg, D. Williams-Young, 
 F. Ding, F. Lipparini, F. Egidi, J. Goings, B. Peng, A. Petrone, 
 T. Henderson, D. Ranasinghe, V. G. Zakrzewski, J. Gao, N. Rega, 
 G. Zheng, W. Liang, M. Hada, M. Ehara, K. Toyota, R. Fukuda, 
 J. Hasegawa, M. Ishida, T. Nakajima, Y. Honda, O. Kitao, H. Nakai, 
 T. Vreven, K. Throssell, J. A. Montgomery, Jr., J. E. Peralta, 
 F. Ogliaro, M. J. Bearpark, J. J. Heyd, E. N. Brothers, K. N. Kudin, 
 V. N. Staroverov, T. A. Keith, R. Kobayashi, J. Normand, 
 K. Raghavachari, A. P. Rendell, J. C. Burant, S. S. Iyengar, 
 J. Tomasi, M. Cossi, J. M. Millam, M. Klene, C. Adamo, R. Cammi, 
 J. W. Ochterski, R. L. Martin, K. Morokuma, O. Farkas, 
 J. B. Foresman, and D. J. Fox, Gaussian, Inc., Wallingford CT, 2016.
 
 ******************************************
 Gaussian 16:  ES64L-G16RevA.03 25-Dec-2016
                 2-Jun-2020 
 ******************************************
 %mem=6GB
 %nprocshared=4
 Will use up to    4 processors via shared memory.
 %chk=EtOH-P2.chk
 ----------------------------------------
 #p opt=calcfc freq b3lyp/6-31g* em=gd3bj
 ----------------------------------------
 1/10=4,18=20,19=15,26=3,38=1/1,3;
 2/9=110,12=2,17=6,18=5,40=1/2;
 3/5=1,6=6,7=1,11=2,25=1,30=1,71=2,74=-5,124=41,140=1/1,2,3;
 4//1;
 5/5=2,38=5/2;
 8/6=4,10=90,11=11/1;
 11/6=1,8=1,9=11,15=111,16=1/1,2,10;
 10/6=1,13=1/2;
 6/7=2,8=2,9=2,10=2,28=1/1;
 7/10=1,18=20,25=1/1,2,3,16;
 1/10=4,18=20,19=15,26=3/3(2);
 2/9=110/2;
 99//99;
 2/9=110/2;
 3/5=1,6=6,7=1,11=2,25=1,30=1,71=1,74=-5,124=41/1,2,3;
 4/5=5,16=3,69=1/1;
 5/5=2,38=5/2;
 7//1,2,3,16;
 1/18=20,19=15,26=3/3(-5);
 2/9=110/2;
 6/7=2,8=2,9=2,10=2,19=2,28=1/1;
 99/9=1/99;
 Leave Link    1 at Tue Jun  2 00:04:36 2020, MaxMem=   805306368 cpu:               0.3 elap:               0.1
 (Enter /home/qslin/g16/l101.exe)
 ---------------------------------------
 optimize transition state and frequency
 ---------------------------------------
 Symbolic Z-matrix:
 Charge =  0 Multiplicity = 1
 O                     0.        0.       -0.11085 
 H                     0.       -0.78384   0.44341 
 H                     0.        0.78384   0.44341 
 
 ITRead=  0  0  0
 MicOpt= -1 -1 -1
 NAtoms=      3 NQM=        3 NQMF=       0 NMMI=      0 NMMIF=      0
                NMic=       0 NMicF=      0.
                    Isotopes and Nuclear Properties:
 (Nuclear quadrupole moments (NQMom) in fm**2, nuclear magnetic moments (NMagM)
  in nuclear magnetons)

  Atom         1           2           3
 IAtWgt=          16           1           1
 AtmWgt=  15.9949146   1.0078250   1.0078250
 NucSpn=           0           1           1
 AtZEff=  -0.0000000  -0.0000000  -0.0000000
 NQMom=    0.0000000   0.0000000   0.0000000
 NMagM=    0.0000000   2.7928460   2.7928460
 AtZNuc=   8.0000000   1.0000000   1.0000000
 Leave Link  101 at Tue Jun  2 00:04:36 2020, MaxMem=   805306368 cpu:               2.1 elap:               0.5
 (Enter /home/qslin/g16/l103.exe)

 GradGradGradGradGradGradGradGradGradGradGradGradGradGradGradGradGradGrad
 Berny optimization.
 Initialization pass.
                           ----------------------------
                           !    Initial Parameters    !
                           ! (Angstroms and Degrees)  !
 --------------------------                            --------------------------
 ! Name  Definition              Value          Derivative Info.                !
 --------------------------------------------------------------------------------
 ! R1    R(1,2)                  0.96           calculate D2E/DX2 analytically  !
 ! R2    R(1,3)                  0.96           calculate D2E/DX2 analytically  !
 ! A1    A(2,1,3)              109.4712         calculate D2E/DX2 analytically  !
 --------------------------------------------------------------------------------
 Trust Radius=3.00D-01 FncErr=1.00D-07 GrdErr=1.00D-06 EigMax=2.50D+02 EigMin=1.00D-04
 Number of steps in this run=     20 maximum allowed number of steps=    100.
 GradGradGradGradGradGradGradGradGradGradGradGradGradGradGradGradGradGrad

 Leave Link  103 at Tue Jun  2 00:04:37 2020, MaxMem=   805306368 cpu:               0.2 elap:               0.1
 (Enter /home/qslin/g16/l202.exe)
                          Input orientation:                          
 ---------------------------------------------------------------------
 Center     Atomic      Atomic             Coordinates (Angstroms)
 Number     Number       Type             X           Y           Z
 ---------------------------------------------------------------------
      1          8           0        0.000000    0.000000   -0.110851
      2          1           0        0.000000   -0.783837    0.443405
      3          1           0        0.000000    0.783837    0.443405
 ---------------------------------------------------------------------
                    Distance matrix (angstroms):
                    1          2          3
     1  O    0.000000
     2  H    0.960000   0.000000
     3  H    0.960000   1.567673   0.000000
 Stoichiometry    H2O
 Framework group  C2V[C2(O),SGV(H2)]
 Deg. of freedom     2
 Full point group                 C2V     NOp   4
 Largest Abelian subgroup         C2V     NOp   4
 Largest concise Abelian subgroup C2      NOp   2
                         Standard orientation:                         
 ---------------------------------------------------------------------
 Center     Atomic      Atomic             Coordinates (Angstroms)
 Number     Number       Type             X           Y           Z
 ---------------------------------------------------------------------
      1          8           0        0.000000    0.000000    0.110851
      2          1           0       -0.000000    0.783837   -0.443405
      3          1           0       -0.000000   -0.783837   -0.443405
 ---------------------------------------------------------------------
 Rotational constants (GHZ):         919.0227249         408.0852063         282.5991538
 Leave Link  202 at Tue Jun  2 00:04:37 2020, MaxMem=   805306368 cpu:               0.0 elap:               0.0
 (Enter /home/qslin/g16/l301.exe)
 Standard basis: 6-31G(d) (6D, 7F)
 Ernie: Thresh=  0.10000D-02 Tol=  0.10000D-05 Strict=F.
 There are    10 symmetry adapted cartesian basis functions of A1  symmetry.
 There are     1 symmetry adapted cartesian basis functions of A2  symmetry.
 There are     3 symmetry adapted cartesian basis functions of B1  symmetry.
 There are     5 symmetry adapted cartesian basis functions of B2  symmetry.
 There are    10 symmetry adapted basis functions of A1  symmetry.
 There are     1 symmetry adapted basis functions of A2  symmetry.
 There are     3 symmetry adapted basis functions of B1  symmetry.
 There are     5 symmetry adapted basis functions of B2  symmetry.
    19 basis functions,    36 primitive gaussians,    19 cartesian basis functions
     5 alpha electrons        5 beta electrons
       nuclear repulsion energy         9.1571759236 Hartrees.
 IExCor=  402 DFT=T Ex+Corr=B3LYP ExCW=0 ScaHFX=  0.200000
 ScaDFX=  0.800000  0.720000  1.000000  0.810000 ScalE2=  1.000000  1.000000
 IRadAn=      5 IRanWt=     -1 IRanGd=            0 ICorTp=0 IEmpDi=141
 NAtoms=    3 NActive=    3 NUniq=    2 SFac= 2.25D+00 NAtFMM=   60 NAOKFM=F Big=F
 Integral buffers will be    131072 words long.
 Raffenetti 2 integral format.
 Two-electron integral symmetry is turned on.
 R6Disp:  Grimme-D3(BJ) Dispersion energy=       -0.0005735821 Hartrees.
 Nuclear repulsion after empirical dispersion term =        9.1566023416 Hartrees.
 Leave Link  301 at Tue Jun  2 00:04:37 2020, MaxMem=   805306368 cpu:               0.1 elap:               0.1
 (Enter /home/qslin/g16/l302.exe)
 NPDir=0 NMtPBC=     1 NCelOv=     1 NCel=       1 NClECP=     1 NCelD=      1
         NCelK=      1 NCelE2=     1 NClLst=     1 CellRange=     0.0.
 One-electron integrals computed using PRISM.
 One-electron integral symmetry used in STVInt
 NBasis=    19 RedAO= T EigKep=  2.24D-02  NBF=    10     1     3     5
 NBsUse=    19 1.00D-06 EigRej= -1.00D+00 NBFU=    10     1     3     5
 Precomputing XC quadrature grid using
 IXCGrd= 4 IRadAn=           5 IRanWt=          -1 IRanGd=           0 AccXCQ= 0.00D+00.
 Generated NRdTot=       0 NPtTot=           0 NUsed=           0 NTot=          32
 NSgBfM=    19    19    19    19    19 MxSgAt=     3 MxSgA2=     3.
 Leave Link  302 at Tue Jun  2 00:04:37 2020, MaxMem=   805306368 cpu:               0.4 elap:               0.1
 (Enter /home/qslin/g16/l303.exe)
 DipDrv:  MaxL=1.
 Leave Link  303 at Tue Jun  2 00:04:37 2020, MaxMem=   805306368 cpu:               0.0 elap:               0.0
 (Enter /home/qslin/g16/l401.exe)
 ExpMin= 1.61D-01 ExpMax= 5.48D+03 ExpMxC= 8.25D+02 IAcc=3 IRadAn=         5 AccDes= 0.00D+00
 Harris functional with IExCor=  402 and IRadAn=       5 diagonalized for initial guess.
 HarFok:  IExCor=  402 AccDes= 0.00D+00 IRadAn=         5 IDoV= 1 UseB2=F ITyADJ=14
 ICtDFT=  3500011 ScaDFX=  1.000000  1.000000  1.000000  1.000000
 FoFCou: FMM=F IPFlag=           0 FMFlag=      100000 FMFlg1=           0
         NFxFlg=           0 DoJE=T BraDBF=F KetDBF=T FulRan=T
         wScrn=  0.000000 ICntrl=       500 IOpCl=  0 I1Cent=   200000004 NGrid=           0
         NMat0=    1 NMatS0=      1 NMatT0=    0 NMatD0=    1 NMtDS0=    0 NMtDT0=    0
 Petite list used in FoFCou.
 Harris En= -76.4484137316721    
 JPrj=0 DoOrth=F DoCkMO=F.
 Initial guess orbital symmetries:
       Occupied  (A1) (A1) (B2) (A1) (B1)
       Virtual   (A1) (B2) (B2) (A1) (B1) (A1) (B2) (A1) (A2) (A1)
                 (B1) (A1) (B2) (A1)
 The electronic state of the initial guess is 1-A1.
 Leave Link  401 at Tue Jun  2 00:04:37 2020, MaxMem=   805306368 cpu:               0.6 elap:               0.2
 (Enter /home/qslin/g16/l502.exe)
 Keep R1 ints in memory in symmetry-blocked form, NReq=3466140.
 FoFCou: FMM=F IPFlag=           0 FMFlag=           0 FMFlg1=           0
         NFxFlg=           0 DoJE=F BraDBF=F KetDBF=F FulRan=T
         wScrn=  0.000000 ICntrl=       600 IOpCl=  0 I1Cent=           0 NGrid=           0
         NMat0=    1 NMatS0=    190 NMatT0=    0 NMatD0=    1 NMtDS0=    0 NMtDT0=    0
 Petite list used in FoFCou.
 Closed shell SCF:
 Using DIIS extrapolation, IDIIS=  1040.
 NGot=   805306368 LenX=   805298438 LenY=   805297556
 Requested convergence on RMS density matrix=1.00D-08 within 128 cycles.
 Requested convergence on MAX density matrix=1.00D-06.
 Requested convergence on             energy=1.00D-06.
 No special actions if energy rises.
 Integral accuracy reduced to 1.0D-05 until final iterations.

 Cycle   1  Pass 0  IDiag  1:
 E= -76.3291906558692    
 DIIS: error= 7.82D-02 at cycle   1 NSaved=   1.
 NSaved= 1 IEnMin= 1 EnMin= -76.3291906558692     IErMin= 1 ErrMin= 7.82D-02
 ErrMax= 7.82D-02  0.00D+00 EMaxC= 1.00D-01 BMatC= 1.07D-01 BMatP= 1.07D-01
 IDIUse=3 WtCom= 2.18D-01 WtEn= 7.82D-01
 Coeff-Com:  0.100D+01
 Coeff-En:   0.100D+01
 Coeff:      0.100D+01
 Gap=     0.210 Goal=   None    Shift=    0.000
 GapD=    0.210 DampG=1.000 DampE=0.500 DampFc=0.5000 IDamp=-1.
 Damping current iteration by 5.00D-01
 RMSDP=2.97D-02 MaxDP=2.22D-01              OVMax= 1.99D-01

 Cycle   2  Pass 0  IDiag  1:
 E= -76.3568893739144     Delta-E=       -0.027698718045 Rises=F Damp=T
 DIIS: error= 1.88D-02 at cycle   2 NSaved=   2.
 NSaved= 2 IEnMin= 2 EnMin= -76.3568893739144     IErMin= 2 ErrMin= 1.88D-02
 ErrMax= 1.88D-02  0.00D+00 EMaxC= 1.00D-01 BMatC= 6.21D-03 BMatP= 1.07D-01
 IDIUse=3 WtCom= 8.12D-01 WtEn= 1.88D-01
 Coeff-Com:  0.178D+00 0.822D+00
 Coeff-En:   0.292D+00 0.708D+00
 Coeff:      0.200D+00 0.800D+00
 Gap=     0.341 Goal=   None    Shift=    0.000
 RMSDP=3.57D-03 MaxDP=3.75D-02 DE=-2.77D-02 OVMax= 1.12D-01

 Cycle   3  Pass 0  IDiag  1:
 E= -76.4084694961963     Delta-E=       -0.051580122282 Rises=F Damp=F
 DIIS: error= 3.13D-03 at cycle   3 NSaved=   3.
 NSaved= 3 IEnMin= 3 EnMin= -76.4084694961963     IErMin= 3 ErrMin= 3.13D-03
 ErrMax= 3.13D-03  0.00D+00 EMaxC= 1.00D-01 BMatC= 1.92D-04 BMatP= 6.21D-03
 IDIUse=3 WtCom= 9.69D-01 WtEn= 3.13D-02
 Coeff-Com:  0.382D-01-0.118D-02 0.963D+00
 Coeff-En:   0.000D+00 0.000D+00 0.100D+01
 Coeff:      0.370D-01-0.114D-02 0.964D+00
 Gap=     0.355 Goal=   None    Shift=    0.000
 RMSDP=4.64D-04 MaxDP=3.84D-03 DE=-5.16D-02 OVMax= 3.14D-03

 Cycle   4  Pass 0  IDiag  1:
 E= -76.4085990992809     Delta-E=       -0.000129603085 Rises=F Damp=F
 DIIS: error= 3.69D-04 at cycle   4 NSaved=   4.
 NSaved= 4 IEnMin= 4 EnMin= -76.4085990992809     IErMin= 4 ErrMin= 3.69D-04
 ErrMax= 3.69D-04  0.00D+00 EMaxC= 1.00D-01 BMatC= 2.23D-06 BMatP= 1.92D-04
 IDIUse=3 WtCom= 9.96D-01 WtEn= 3.69D-03
 Coeff-Com:  0.578D-02-0.167D-01 0.206D+00 0.805D+00
 Coeff-En:   0.000D+00 0.000D+00 0.000D+00 0.100D+01
 Coeff:      0.576D-02-0.166D-01 0.205D+00 0.805D+00
 Gap=     0.355 Goal=   None    Shift=    0.000
 RMSDP=3.89D-05 MaxDP=1.86D-04 DE=-1.30D-04 OVMax= 2.73D-04

 Cycle   5  Pass 0  IDiag  1:
 E= -76.4086006817335     Delta-E=       -0.000001582453 Rises=F Damp=F
 DIIS: error= 5.11D-05 at cycle   5 NSaved=   5.
 NSaved= 5 IEnMin= 5 EnMin= -76.4086006817335     IErMin= 5 ErrMin= 5.11D-05
 ErrMax= 5.11D-05  0.00D+00 EMaxC= 1.00D-01 BMatC= 3.62D-08 BMatP= 2.23D-06
 IDIUse=1 WtCom= 1.00D+00 WtEn= 0.00D+00
 Coeff-Com:  0.473D-03-0.270D-03-0.993D-03-0.876D-02 0.101D+01
 Coeff:      0.473D-03-0.270D-03-0.993D-03-0.876D-02 0.101D+01
 Gap=     0.355 Goal=   None    Shift=    0.000
 RMSDP=7.47D-06 MaxDP=6.59D-05 DE=-1.58D-06 OVMax= 4.18D-05

 Initial convergence to 1.0D-05 achieved.  Increase integral accuracy.
 Cycle   6  Pass 1  IDiag  1:
 E= -76.4086014963683     Delta-E=       -0.000000814635 Rises=F Damp=F
 DIIS: error= 3.36D-07 at cycle   1 NSaved=   1.
 NSaved= 1 IEnMin= 1 EnMin= -76.4086014963683     IErMin= 1 ErrMin= 3.36D-07
 ErrMax= 3.36D-07  0.00D+00 EMaxC= 1.00D-01 BMatC= 2.46D-12 BMatP= 2.46D-12
 IDIUse=1 WtCom= 1.00D+00 WtEn= 0.00D+00
 Coeff-Com:  0.100D+01
 Coeff:      0.100D+01
 Gap=     0.355 Goal=   None    Shift=    0.000
 RMSDP=7.47D-06 MaxDP=6.59D-05 DE=-8.15D-07 OVMax= 1.07D-06

 Cycle   7  Pass 1  IDiag  1:
 E= -76.4086014963717     Delta-E=       -0.000000000003 Rises=F Damp=F
 DIIS: error= 4.97D-08 at cycle   2 NSaved=   2.
 NSaved= 2 IEnMin= 2 EnMin= -76.4086014963717     IErMin= 2 ErrMin= 4.97D-08
 ErrMax= 4.97D-08  0.00D+00 EMaxC= 1.00D-01 BMatC= 4.29D-14 BMatP= 2.46D-12
 IDIUse=1 WtCom= 1.00D+00 WtEn= 0.00D+00
 Coeff-Com: -0.499D-02 0.100D+01
 Coeff:     -0.499D-02 0.100D+01
 Gap=     0.355 Goal=   None    Shift=    0.000
 RMSDP=2.23D-08 MaxDP=1.48D-07 DE=-3.44D-12 OVMax= 1.89D-07

 Cycle   8  Pass 1  IDiag  1:
 E= -76.4086014963718     Delta-E=       -0.000000000000 Rises=F Damp=F
 DIIS: error= 5.99D-08 at cycle   3 NSaved=   3.
 NSaved= 3 IEnMin= 3 EnMin= -76.4086014963718     IErMin= 2 ErrMin= 4.97D-08
 ErrMax= 5.99D-08  0.00D+00 EMaxC= 1.00D-01 BMatC= 6.12D-14 BMatP= 4.29D-14
 IDIUse=1 WtCom= 1.00D+00 WtEn= 0.00D+00
 Coeff-Com: -0.379D-01 0.554D+00 0.484D+00
 Coeff:     -0.379D-01 0.554D+00 0.484D+00
 Gap=     0.355 Goal=   None    Shift=    0.000
 RMSDP=8.64D-09 MaxDP=5.84D-08 DE=-1.14D-13 OVMax= 6.28D-08

 SCF Done:  E(RB3LYP) =  -76.4086014964     A.U. after    8 cycles
            NFock=  8  Conv=0.86D-08     -V/T= 2.0075
 KE= 7.583710190541D+01 PE=-1.989175287925D+02 EE= 3.751522304912D+01
 Leave Link  502 at Tue Jun  2 00:04:37 2020, MaxMem=   805306368 cpu:               0.9 elap:               0.2
 (Enter /home/qslin/g16/l801.exe)
 DoSCS=F DFT=T ScalE2(SS,OS)=  1.000000  1.000000
 Range of M.O.s used for correlation:     1    19
 NBasis=    19 NAE=     5 NBE=     5 NFC=     0 NFV=     0
 NROrb=     19 NOA=     5 NOB=     5 NVA=    14 NVB=    14
 Leave Link  801 at Tue Jun  2 00:04:38 2020, MaxMem=   805306368 cpu:               0.0 elap:               0.0
 (Enter /home/qslin/g16/l1101.exe)
 Using compressed storage, NAtomX=     3.
 Will process      4 centers per pass.
 R6Disp: Adding Grimme-D3(BJ) dispersion energy 1st derivatives to the gradient.
 Leave Link 1101 at Tue Jun  2 00:04:38 2020, MaxMem=   805306368 cpu:               0.4 elap:               0.1
 (Enter /home/qslin/g16/l1102.exe)
 Symmetrizing basis deriv contribution to polar:
 IMax=3 JMax=2 DiffMx= 0.00D+00
 Leave Link 1102 at Tue Jun  2 00:04:38 2020, MaxMem=   805306368 cpu:               0.1 elap:               0.0
 (Enter /home/qslin/g16/l1110.exe)
 Forming Gx(P) for the SCF density, NAtomX=     3.
 Integral derivatives from FoFJK, PRISM(SPDF).
 Do as many integral derivatives as possible in FoFJK.
 G2DrvN: MDV=     805306028.
 G2DrvN: will do     4 centers at a time, making    1 passes.
 Calling FoFCou, ICntrl=  3107 FMM=F I1Cent=   0 AccDes= 0.00D+00.
 FoFJK:  IHMeth= 1 ICntrl=    3107 DoSepK=F KAlg= 0 I1Cent=           0 FoldK=F
 IRaf=         0 NMat=       1 IRICut=       1 DoRegI=T DoRafI=F ISym2E= 1 IDoP0=0 IntGTp=1.
 FoFCou: FMM=F IPFlag=           0 FMFlag=      100000 FMFlg1=           0
         NFxFlg=           0 DoJE=F BraDBF=F KetDBF=F FulRan=T
         wScrn=  0.000000 ICntrl=      3107 IOpCl=  0 I1Cent=           0 NGrid=           0
         NMat0=    1 NMatS0=      1 NMatT0=    0 NMatD0=    1 NMtDS0=    0 NMtDT0=    0
 Petite list used in FoFCou.
 End of G2Drv F.D. properties file   721 does not exist.
 End of G2Drv F.D. properties file   722 does not exist.
 End of G2Drv F.D. properties file   788 does not exist.
 Leave Link 1110 at Tue Jun  2 00:04:38 2020, MaxMem=   805306368 cpu:               0.9 elap:               0.2
 (Enter /home/qslin/g16/l1002.exe)
 Minotr:  Closed shell wavefunction.
          IDoAtm=111
          Direct CPHF calculation.
          Differentiating once with respect to nuclear coordinates.
          Using symmetry in CPHF.
          Requested convergence is 1.0D-08 RMS, and 1.0D-07 maximum.
          Secondary convergence is 1.0D-12 RMS, and 1.0D-12 maximum.
          NewPWx=T KeepS1=F KeepF1=F KeepIn=T MapXYZ=F SortEE=F KeepMc=T.
          874 words used for storage of precomputed grid.
 Keep R1 ints in memory in symmetry-blocked form, NReq=3454952.
 FoFCou: FMM=F IPFlag=           0 FMFlag=           0 FMFlg1=           0
         NFxFlg=           0 DoJE=F BraDBF=F KetDBF=F FulRan=T
         wScrn=  0.000000 ICntrl=       600 IOpCl=  0 I1Cent=           0 NGrid=           0
         NMat0=    1 NMatS0=    190 NMatT0=    0 NMatD0=    1 NMtDS0=    0 NMtDT0=    0
 Petite list used in FoFCou.
          MDV=     805306368 using IRadAn=       1.
          Solving linear equations simultaneously, MaxMat=       0.
          There are     9 degrees of freedom in the 1st order CPHF.  IDoFFX=4 NUNeed=     9.
      6 vectors produced by pass  0 Test12= 7.78D-16 1.11D-08 XBig12= 7.57D-02 1.95D-01.
 AX will form     6 AO Fock derivatives at one time.
      6 vectors produced by pass  1 Test12= 7.78D-16 1.11D-08 XBig12= 1.64D-02 6.70D-02.
      6 vectors produced by pass  2 Test12= 7.78D-16 1.11D-08 XBig12= 1.89D-04 6.99D-03.
      6 vectors produced by pass  3 Test12= 7.78D-16 1.11D-08 XBig12= 3.35D-07 2.83D-04.
      6 vectors produced by pass  4 Test12= 7.78D-16 1.11D-08 XBig12= 4.42D-10 8.69D-06.
      2 vectors produced by pass  5 Test12= 7.78D-16 1.11D-08 XBig12= 1.79D-13 2.17D-07.
 InvSVY:  IOpt=1 It=  1 EMax= 4.44D-16
 Solved reduced A of dimension    32 with     6 vectors.
 FullF1:  Do perturbations      4 to       9.
 End of Minotr F.D. properties file   721 does not exist.
 End of Minotr F.D. properties file   722 does not exist.
 End of Minotr F.D. properties file   788 does not exist.
 Leave Link 1002 at Tue Jun  2 00:04:38 2020, MaxMem=   805306368 cpu:               1.1 elap:               0.3
 (Enter /home/qslin/g16/l601.exe)
 Copying SCF densities to generalized density rwf, IOpCl= 0 IROHF=0.

 **********************************************************************

            Population analysis using the SCF density.

 **********************************************************************

 Orbital symmetries:
       Occupied  (A1) (A1) (B2) (A1) (B1)
       Virtual   (A1) (B2) (B2) (A1) (B1) (A1) (B2) (A1) (A2) (A1)
                 (B1) (A1) (B2) (A1)
 The electronic state is 1-A1.
 Alpha  occ. eigenvalues --  -19.13349  -0.99654  -0.53002  -0.36090  -0.28979
 Alpha virt. eigenvalues --    0.06550   0.15268   0.80035   0.84892   0.89218
 Alpha virt. eigenvalues --    0.89241   1.07364   1.17579   1.74000   1.74499
 Alpha virt. eigenvalues --    1.78544   2.29886   2.59367   3.56647
          Condensed to atoms (all electrons):
               1          2          3
     1  O    8.292240   0.247227   0.247227
     2  H    0.247227   0.380428  -0.021003
     3  H    0.247227  -0.021003   0.380428
 Mulliken charges:
               1
     1  O   -0.786695
     2  H    0.393347
     3  H    0.393347
 Sum of Mulliken charges =  -0.00000
 Mulliken charges with hydrogens summed into heavy atoms:
               1
     1  O   -0.000000
 APT charges:
               1
     1  O   -1.092313
     2  H    0.546157
     3  H    0.546157
 Sum of APT charges =  -0.00000
 APT charges with hydrogens summed into heavy atoms:
               1
     1  O   -0.000000
 Electronic spatial extent (au):  <R**2>=             19.0480
 Charge=             -0.0000 electrons
 Dipole moment (field-independent basis, Debye):
    X=             -0.0000    Y=              0.0000    Z=             -2.0003  Tot=              2.0003
 Quadrupole moment (field-independent basis, Debye-Ang):
   XX=             -7.1850   YY=             -4.0410   ZZ=             -6.1311
   XY=              0.0000   XZ=              0.0000   YZ=              0.0000
 Traceless Quadrupole moment (field-independent basis, Debye-Ang):
   XX=             -1.3993   YY=              1.7447   ZZ=             -0.3454
   XY=              0.0000   XZ=              0.0000   YZ=              0.0000
 Octapole moment (field-independent basis, Debye-Ang**2):
  XXX=              0.0000  YYY=             -0.0000  ZZZ=             -1.1317  XYY=             -0.0000
  XXY=              0.0000  XXZ=             -0.3153  XZZ=             -0.0000  YZZ=              0.0000
  YYZ=             -1.2153  XYZ=             -0.0000
 Hexadecapole moment (field-independent basis, Debye-Ang**3):
 XXXX=             -5.1928 YYYY=             -5.8026 ZZZZ=             -6.1250 XXXY=             -0.0000
 XXXZ=             -0.0000 YYYX=              0.0000 YYYZ=              0.0000 ZZZX=             -0.0000
 ZZZY=             -0.0000 XXYY=             -2.1087 XXZZ=             -1.9234 YYZZ=             -1.7429
 XXYZ=             -0.0000 YYXZ=              0.0000 ZZXY=             -0.0000
 N-N= 9.156602341551D+00 E-N=-1.989175303596D+02  KE= 7.583710190541D+01
 Symmetry A1   KE= 6.768756160941D+01
 Symmetry A2   KE= 5.775140107335D-35
 Symmetry B1   KE= 4.591543882644D+00
 Symmetry B2   KE= 3.557996413358D+00
  Exact polarizability:   0.000   0.000   0.000   0.000   0.000   0.000
 Approx polarizability:   3.101   0.000   8.978   0.000  -0.000   6.086
 No NMR shielding tensors so no spin-rotation constants.
 Leave Link  601 at Tue Jun  2 00:04:38 2020, MaxMem=   805306368 cpu:               0.3 elap:               0.1
 (Enter /home/qslin/g16/l701.exe)
 ... and contract with generalized density number  0.
 Compute integral second derivatives.
 R6Disp: Adding Grimme-D3(BJ) dispersion energy 2nd derivatives to the Hessian.
 Leave Link  701 at Tue Jun  2 00:04:39 2020, MaxMem=   805306368 cpu:               0.5 elap:               0.2
 (Enter /home/qslin/g16/l702.exe)
 L702 exits ... SP integral derivatives will be done elsewhere.
 Leave Link  702 at Tue Jun  2 00:04:39 2020, MaxMem=   805306368 cpu:               0.1 elap:               0.0
 (Enter /home/qslin/g16/l703.exe)
 Integral derivatives from FoFJK, PRISM(SPDF).
 Compute integral second derivatives, UseDBF=F ICtDFT=           0.
 Calling FoFJK, ICntrl=    100147 FMM=F ISym2X=1 I1Cent= 0 IOpClX= 0 NMat=1 NMatS=1 NMatT=0.
 FoFJK:  IHMeth= 1 ICntrl=  100147 DoSepK=F KAlg= 0 I1Cent=           0 FoldK=F
 IRaf=         0 NMat=       1 IRICut=       1 DoRegI=T DoRafI=F ISym2E= 1 IDoP0=0 IntGTp=1.
 FoFCou: FMM=F IPFlag=           0 FMFlag=      100000 FMFlg1=         800
         NFxFlg=           0 DoJE=F BraDBF=F KetDBF=F FulRan=T
         wScrn=  0.000000 ICntrl=    100147 IOpCl=  0 I1Cent=           0 NGrid=           0
         NMat0=    1 NMatS0=      1 NMatT0=    0 NMatD0=    1 NMtDS0=    0 NMtDT0=    0
 Petite list used in FoFCou.
 Leave Link  703 at Tue Jun  2 00:04:39 2020, MaxMem=   805306368 cpu:               1.6 elap:               0.4
 (Enter /home/qslin/g16/l716.exe)
 Dipole        =-6.87451145D-17 0.00000000D+00-7.86967101D-01
 Polarizability= 0.00000000D+00 0.00000000D+00 0.00000000D+00
                 0.00000000D+00 0.00000000D+00 0.00000000D+00
 ***** Axes restored to original set *****
 -------------------------------------------------------------------
 Center     Atomic                   Forces (Hartrees/Bohr)
 Number     Number              X              Y              Z
 -------------------------------------------------------------------
      1        8          -0.000000000   -0.000000000   -0.020961922
      2        1          -0.000000000    0.000616200    0.010480961
      3        1           0.000000000   -0.000616200    0.010480961
 -------------------------------------------------------------------
 Cartesian Forces:  Max     0.020961922 RMS     0.008562597
 Force constants in Cartesian coordinates: 
                1             2             3             4             5 
      1 -0.199926D-01
      2  0.000000D+00  0.734799D+00
      3  0.000000D+00  0.000000D+00  0.430923D+00
      4  0.999629D-02  0.000000D+00  0.000000D+00 -0.478524D-02
      5  0.000000D+00 -0.367400D+00  0.199341D+00  0.000000D+00  0.391083D+00
      6  0.000000D+00  0.266860D+00 -0.215461D+00  0.000000D+00 -0.233100D+00
      7  0.999629D-02  0.000000D+00  0.000000D+00 -0.521105D-02  0.000000D+00
      8  0.000000D+00 -0.367400D+00 -0.199341D+00  0.000000D+00 -0.236829D-01
      9  0.000000D+00 -0.266860D+00 -0.215461D+00  0.000000D+00  0.337593D-01
                6             7             8             9 
      6  0.202290D+00
      7  0.000000D+00 -0.478524D-02
      8 -0.337593D-01  0.000000D+00  0.391083D+00
      9  0.131714D-01  0.000000D+00  0.233100D+00  0.202290D+00
 FormGI is forming the generalized inverse of G from B-inverse, IUseBI=4.
 Force constants in internal coordinates: 
                1             2             3 
      1  0.547922D+00
      2 -0.116511D-01  0.547922D+00
      3  0.294064D-01  0.294064D-01  0.159641D+00
 Leave Link  716 at Tue Jun  2 00:04:39 2020, MaxMem=   805306368 cpu:               0.0 elap:               0.0
 (Enter /home/qslin/g16/l103.exe)

 GradGradGradGradGradGradGradGradGradGradGradGradGradGradGradGradGradGrad
 Berny optimization.
 Red2BG is reusing G-inverse.
 Internal  Forces:  Max     0.016170188 RMS     0.010376848
 Search for a local minimum.
 Step number   1 out of a maximum of   20
 All quantities printed in internal units (Hartrees-Bohrs-Radians)
 RMS Force = .10377D-01 SwitMx=.10000D-02 MixMth= 1
 Mixed Optimization -- RFO/linear search
 Second derivative matrix not updated -- analytic derivatives used.
 The second derivative matrix:
                          R1        R2        A1
           R1           0.54792
           R2          -0.01165   0.54792
           A1           0.02941   0.02941   0.15964
 ITU=  0
     Eigenvalues ---    0.15510   0.54081   0.55957
 RFO step:  Lambda=-1.89213996D-03 EMin= 1.55103448D-01
 Linear search not attempted -- first point.
 Iteration  1 RMS(Cart)=  0.05392355 RMS(Int)=  0.00214327
 Iteration  2 RMS(Cart)=  0.00212899 RMS(Int)=  0.00000084
 Iteration  3 RMS(Cart)=  0.00000073 RMS(Int)=  0.00000000
 ITry= 1 IFail=0 DXMaxC= 5.80D-02 DCOld= 1.00D+10 DXMaxT= 3.00D-01 DXLimC= 3.00D+00 Rises=F
 ClnCor:  largest displacement from symmetrization is 1.81D-15 for atom     3.
 Variable       Old X    -DE/DX   Delta X   Delta X   Delta X     New X
                                 (Linear)    (Quad)   (Total)
    R1        1.81414   0.00555   0.00000   0.01610   0.01610   1.83024
    R2        1.81414   0.00555   0.00000   0.01610   0.01610   1.83024
    A1        1.91063  -0.01617   0.00000  -0.10597  -0.10597   1.80467
         Item               Value     Threshold  Converged?
 Maximum Force            0.016170     0.000450     NO 
 RMS     Force            0.010377     0.000300     NO 
 Maximum Displacement     0.057968     0.001800     NO 
 RMS     Displacement     0.054999     0.001200     NO 
 Predicted change in Energy=-9.571821D-04
 Lowest energy point so far.  Saving SCF results.
 GradGradGradGradGradGradGradGradGradGradGradGradGradGradGradGradGradGrad

 Leave Link  103 at Tue Jun  2 00:04:39 2020, MaxMem=   805306368 cpu:               0.0 elap:               0.0
 (Enter /home/qslin/g16/l202.exe)
                          Input orientation:                          
 ---------------------------------------------------------------------
 Center     Atomic      Atomic             Coordinates (Angstroms)
 Number     Number       Type             X           Y           Z
 ---------------------------------------------------------------------
      1          8           0        0.000000   -0.000000   -0.141527
      2          1           0        0.000000   -0.760070    0.458743
      3          1           0       -0.000000    0.760070    0.458743
 ---------------------------------------------------------------------
                    Distance matrix (angstroms):
                    1          2          3
     1  O    0.000000
     2  H    0.968519   0.000000
     3  H    0.968519   1.520140   0.000000
 Stoichiometry    H2O
 Framework group  C2V[C2(O),SGV(H2)]
 Deg. of freedom     2
 Full point group                 C2V     NOp   4
 RotChk:  IX=0 Diff= 6.94D-16
 Largest Abelian subgroup         C2V     NOp   4
 Largest concise Abelian subgroup C2      NOp   2
                         Standard orientation:                         
 ---------------------------------------------------------------------
 Center     Atomic      Atomic             Coordinates (Angstroms)
 Number     Number       Type             X           Y           Z
 ---------------------------------------------------------------------
      1          8           0        0.000000    0.000000    0.120054
      2          1           0       -0.000000    0.760070   -0.480216
      3          1           0       -0.000000   -0.760070   -0.480216
 ---------------------------------------------------------------------
 Rotational constants (GHZ):         783.5289603         434.0049783         279.2985547
 Leave Link  202 at Tue Jun  2 00:04:39 2020, MaxMem=   805306368 cpu:               0.0 elap:               0.0
 (Enter /home/qslin/g16/l301.exe)
 Standard basis: 6-31G(d) (6D, 7F)
 Ernie: Thresh=  0.10000D-02 Tol=  0.10000D-05 Strict=F.
 There are    10 symmetry adapted cartesian basis functions of A1  symmetry.
 There are     1 symmetry adapted cartesian basis functions of A2  symmetry.
 There are     3 symmetry adapted cartesian basis functions of B1  symmetry.
 There are     5 symmetry adapted cartesian basis functions of B2  symmetry.
 There are    10 symmetry adapted basis functions of A1  symmetry.
 There are     1 symmetry adapted basis functions of A2  symmetry.
 There are     3 symmetry adapted basis functions of B1  symmetry.
 There are     5 symmetry adapted basis functions of B2  symmetry.
    19 basis functions,    36 primitive gaussians,    19 cartesian basis functions
     5 alpha electrons        5 beta electrons
       nuclear repulsion energy         9.0901501004 Hartrees.
 IExCor=  402 DFT=T Ex+Corr=B3LYP ExCW=0 ScaHFX=  0.200000
 ScaDFX=  0.800000  0.720000  1.000000  0.810000 ScalE2=  1.000000  1.000000
 IRadAn=      5 IRanWt=     -1 IRanGd=            0 ICorTp=0 IEmpDi=141
 NAtoms=    3 NActive=    3 NUniq=    2 SFac= 2.25D+00 NAtFMM=   60 NAOKFM=F Big=F
 Integral buffers will be    131072 words long.
 Raffenetti 2 integral format.
 Two-electron integral symmetry is turned on.
 R6Disp:  Grimme-D3(BJ) Dispersion energy=       -0.0005739332 Hartrees.
 Nuclear repulsion after empirical dispersion term =        9.0895761671 Hartrees.
 Leave Link  301 at Tue Jun  2 00:04:39 2020, MaxMem=   805306368 cpu:               0.1 elap:               0.0
 (Enter /home/qslin/g16/l302.exe)
 NPDir=0 NMtPBC=     1 NCelOv=     1 NCel=       1 NClECP=     1 NCelD=      1
         NCelK=      1 NCelE2=     1 NClLst=     1 CellRange=     0.0.
 One-electron integrals computed using PRISM.
 One-electron integral symmetry used in STVInt
 NBasis=    19 RedAO= T EigKep=  2.27D-02  NBF=    10     1     3     5
 NBsUse=    19 1.00D-06 EigRej= -1.00D+00 NBFU=    10     1     3     5
 Precomputing XC quadrature grid using
 IXCGrd= 4 IRadAn=           5 IRanWt=          -1 IRanGd=           0 AccXCQ= 0.00D+00.
 Generated NRdTot=       0 NPtTot=           0 NUsed=           0 NTot=          32
 NSgBfM=    19    19    19    19    19 MxSgAt=     3 MxSgA2=     3.
 Leave Link  302 at Tue Jun  2 00:04:39 2020, MaxMem=   805306368 cpu:               0.3 elap:               0.1
 (Enter /home/qslin/g16/l303.exe)
 DipDrv:  MaxL=1.
 Leave Link  303 at Tue Jun  2 00:04:39 2020, MaxMem=   805306368 cpu:               0.1 elap:               0.0
 (Enter /home/qslin/g16/l401.exe)
 Initial guess from the checkpoint file:  "EtOH-P2.chk"
 B after Tr=     0.000000   -0.000000    0.000000
         Rot=    1.000000    0.000000   -0.000000    0.000000 Ang=   0.00 deg.
 Guess basis will be translated and rotated to current coordinates.
 JPrj=2 DoOrth=T DoCkMO=T.
 Initial guess orbital symmetries:
       Occupied  (A1) (A1) (B2) (A1) (B1)
       Virtual   (A1) (B2) (B2) (A1) (B1) (A1) (B2) (A1) (A2) (A1)
                 (B1) (A1) (B2) (A1)
 The electronic state of the initial guess is 1-A1.
 Generating alternative initial guess.
 ExpMin= 1.61D-01 ExpMax= 5.48D+03 ExpMxC= 8.25D+02 IAcc=2 IRadAn=         4 AccDes= 0.00D+00
 Harris functional with IExCor=  402 and IRadAn=       4 diagonalized for initial guess.
 HarFok:  IExCor=  402 AccDes= 0.00D+00 IRadAn=         4 IDoV= 1 UseB2=F ITyADJ=14
 ICtDFT=  3500011 ScaDFX=  1.000000  1.000000  1.000000  1.000000
 FoFCou: FMM=F IPFlag=           0 FMFlag=      100000 FMFlg1=           0
         NFxFlg=           0 DoJE=T BraDBF=F KetDBF=T FulRan=T
         wScrn=  0.000000 ICntrl=       500 IOpCl=  0 I1Cent=   200000004 NGrid=           0
         NMat0=    1 NMatS0=      1 NMatT0=    0 NMatD0=    1 NMtDS0=    0 NMtDT0=    0
 Petite list used in FoFCou.
 Harris En= -76.4475655994084    
 Leave Link  401 at Tue Jun  2 00:04:40 2020, MaxMem=   805306368 cpu:               0.5 elap:               0.1
 (Enter /home/qslin/g16/l502.exe)
 Keep R1 ints in memory in symmetry-blocked form, NReq=3466140.
 FoFCou: FMM=F IPFlag=           0 FMFlag=           0 FMFlg1=           0
         NFxFlg=           0 DoJE=F BraDBF=F KetDBF=F FulRan=T
         wScrn=  0.000000 ICntrl=       600 IOpCl=  0 I1Cent=           0 NGrid=           0
         NMat0=    1 NMatS0=    190 NMatT0=    0 NMatD0=    1 NMtDS0=    0 NMtDT0=    0
 Petite list used in FoFCou.
 Closed shell SCF:
 Using DIIS extrapolation, IDIIS=  1040.
 NGot=   805306368 LenX=   805298438 LenY=   805297556
 Requested convergence on RMS density matrix=1.00D-08 within 128 cycles.
 Requested convergence on MAX density matrix=1.00D-06.
 Requested convergence on             energy=1.00D-06.
 No special actions if energy rises.
 Integral accuracy reduced to 1.0D-05 until final iterations.

 Cycle   1  Pass 0  IDiag  1:
 E= -76.4090457297905    
 DIIS: error= 4.30D-03 at cycle   1 NSaved=   1.
 NSaved= 1 IEnMin= 1 EnMin= -76.4090457297905     IErMin= 1 ErrMin= 4.30D-03
 ErrMax= 4.30D-03  0.00D+00 EMaxC= 1.00D-01 BMatC= 3.45D-04 BMatP= 3.45D-04
 IDIUse=3 WtCom= 9.57D-01 WtEn= 4.30D-02
 Coeff-Com:  0.100D+01
 Coeff-En:   0.100D+01
 Coeff:      0.100D+01
 Gap=     0.351 Goal=   None    Shift=    0.000
 GapD=    0.351 DampG=1.000 DampE=1.000 DampFc=1.0000 IDamp=-1.
 RMSDP=1.80D-03 MaxDP=1.44D-02              OVMax= 1.27D-02

 Cycle   2  Pass 0  IDiag  1:
 E= -76.4094762208079     Delta-E=       -0.000430491017 Rises=F Damp=F
 DIIS: error= 1.98D-03 at cycle   2 NSaved=   2.
 NSaved= 2 IEnMin= 2 EnMin= -76.4094762208079     IErMin= 2 ErrMin= 1.98D-03
 ErrMax= 1.98D-03  0.00D+00 EMaxC= 1.00D-01 BMatC= 6.83D-05 BMatP= 3.45D-04
 IDIUse=3 WtCom= 9.80D-01 WtEn= 1.98D-02
 Coeff-Com:  0.197D+00 0.803D+00
 Coeff-En:   0.000D+00 0.100D+01
 Coeff:      0.193D+00 0.807D+00
 Gap=     0.356 Goal=   None    Shift=    0.000
 RMSDP=5.28D-04 MaxDP=3.62D-03 DE=-4.30D-04 OVMax= 4.03D-03

 Cycle   3  Pass 0  IDiag  1:
 E= -76.4094836070053     Delta-E=       -0.000007386197 Rises=F Damp=F
 DIIS: error= 1.87D-03 at cycle   3 NSaved=   3.
 NSaved= 3 IEnMin= 3 EnMin= -76.4094836070053     IErMin= 3 ErrMin= 1.87D-03
 ErrMax= 1.87D-03  0.00D+00 EMaxC= 1.00D-01 BMatC= 5.93D-05 BMatP= 6.83D-05
 IDIUse=3 WtCom= 9.81D-01 WtEn= 1.87D-02
 Coeff-Com: -0.181D-01 0.487D+00 0.531D+00
 Coeff-En:   0.000D+00 0.464D+00 0.536D+00
 Coeff:     -0.178D-01 0.487D+00 0.531D+00
 Gap=     0.354 Goal=   None    Shift=    0.000
 RMSDP=2.70D-04 MaxDP=1.87D-03 DE=-7.39D-06 OVMax= 1.93D-03

 Cycle   4  Pass 0  IDiag  1:
 E= -76.4095252826948     Delta-E=       -0.000041675689 Rises=F Damp=F
 DIIS: error= 6.51D-05 at cycle   4 NSaved=   4.
 NSaved= 4 IEnMin= 4 EnMin= -76.4095252826948     IErMin= 4 ErrMin= 6.51D-05
 ErrMax= 6.51D-05  0.00D+00 EMaxC= 1.00D-01 BMatC= 8.48D-08 BMatP= 5.93D-05
 IDIUse=1 WtCom= 1.00D+00 WtEn= 0.00D+00
 Coeff-Com: -0.844D-02 0.955D-01 0.117D+00 0.796D+00
 Coeff:     -0.844D-02 0.955D-01 0.117D+00 0.796D+00
 Gap=     0.354 Goal=   None    Shift=    0.000
 RMSDP=1.06D-05 MaxDP=6.78D-05 DE=-4.17D-05 OVMax= 6.75D-05

 Cycle   5  Pass 0  IDiag  1:
 E= -76.4095253473792     Delta-E=       -0.000000064684 Rises=F Damp=F
 DIIS: error= 4.98D-06 at cycle   5 NSaved=   5.
 NSaved= 5 IEnMin= 5 EnMin= -76.4095253473792     IErMin= 5 ErrMin= 4.98D-06
 ErrMax= 4.98D-06  0.00D+00 EMaxC= 1.00D-01 BMatC= 3.70D-10 BMatP= 8.48D-08
 IDIUse=1 WtCom= 1.00D+00 WtEn= 0.00D+00
 Coeff-Com:  0.287D-03-0.625D-02-0.669D-02 0.244D-01 0.988D+00
 Coeff:      0.287D-03-0.625D-02-0.669D-02 0.244D-01 0.988D+00
 Gap=     0.354 Goal=   None    Shift=    0.000
 RMSDP=1.53D-06 MaxDP=9.07D-06 DE=-6.47D-08 OVMax= 1.55D-05

 Initial convergence to 1.0D-05 achieved.  Increase integral accuracy.
 Cycle   6  Pass 1  IDiag  1:
 E= -76.4095260033698     Delta-E=       -0.000000655991 Rises=F Damp=F
 DIIS: error= 8.54D-07 at cycle   1 NSaved=   1.
 NSaved= 1 IEnMin= 1 EnMin= -76.4095260033698     IErMin= 1 ErrMin= 8.54D-07
 ErrMax= 8.54D-07  0.00D+00 EMaxC= 1.00D-01 BMatC= 1.04D-11 BMatP= 1.04D-11
 IDIUse=1 WtCom= 1.00D+00 WtEn= 0.00D+00
 Coeff-Com:  0.100D+01
 Coeff:      0.100D+01
 Gap=     0.354 Goal=   None    Shift=    0.000
 RMSDP=1.53D-06 MaxDP=9.07D-06 DE=-6.56D-07 OVMax= 2.45D-06

 Cycle   7  Pass 1  IDiag  1:
 E= -76.4095260033679     Delta-E=        0.000000000002 Rises=F Damp=F
 DIIS: error= 1.00D-06 at cycle   2 NSaved=   2.
 NSaved= 2 IEnMin= 1 EnMin= -76.4095260033698     IErMin= 1 ErrMin= 8.54D-07
 ErrMax= 1.00D-06  0.00D+00 EMaxC= 1.00D-01 BMatC= 1.67D-11 BMatP= 1.04D-11
 IDIUse=1 WtCom= 1.00D+00 WtEn= 0.00D+00
 Coeff-Com:  0.562D+00 0.438D+00
 Coeff:      0.562D+00 0.438D+00
 Gap=     0.354 Goal=   None    Shift=    0.000
 RMSDP=1.52D-07 MaxDP=1.10D-06 DE= 1.85D-12 OVMax= 1.06D-06

 Cycle   8  Pass 1  IDiag  1:
 E= -76.4095260033797     Delta-E=       -0.000000000012 Rises=F Damp=F
 DIIS: error= 8.73D-08 at cycle   3 NSaved=   3.
 NSaved= 3 IEnMin= 3 EnMin= -76.4095260033797     IErMin= 3 ErrMin= 8.73D-08
 ErrMax= 8.73D-08  0.00D+00 EMaxC= 1.00D-01 BMatC= 8.90D-14 BMatP= 1.04D-11
 IDIUse=1 WtCom= 1.00D+00 WtEn= 0.00D+00
 Coeff-Com: -0.311D-01 0.435D-01 0.988D+00
 Coeff:     -0.311D-01 0.435D-01 0.988D+00
 Gap=     0.354 Goal=   None    Shift=    0.000
 RMSDP=1.60D-08 MaxDP=8.62D-08 DE=-1.17D-11 OVMax= 1.19D-07

 Cycle   9  Pass 1  IDiag  1:
 E= -76.4095260033797     Delta-E=       -0.000000000000 Rises=F Damp=F
 DIIS: error= 1.05D-08 at cycle   4 NSaved=   4.
 NSaved= 4 IEnMin= 4 EnMin= -76.4095260033797     IErMin= 4 ErrMin= 1.05D-08
 ErrMax= 1.05D-08  0.00D+00 EMaxC= 1.00D-01 BMatC= 1.44D-15 BMatP= 8.90D-14
 IDIUse=1 WtCom= 1.00D+00 WtEn= 0.00D+00
 Coeff-Com: -0.151D-01 0.498D-02 0.201D+00 0.809D+00
 Coeff:     -0.151D-01 0.498D-02 0.201D+00 0.809D+00
 Gap=     0.354 Goal=   None    Shift=    0.000
 RMSDP=1.45D-09 MaxDP=6.78D-09 DE=-5.68D-14 OVMax= 1.33D-08

 SCF Done:  E(RB3LYP) =  -76.4095260034     A.U. after    9 cycles
            NFock=  9  Conv=0.15D-08     -V/T= 2.0078
 KE= 7.582078840984D+01 PE=-1.987603224368D+02 EE= 3.744043185640D+01
 Leave Link  502 at Tue Jun  2 00:04:40 2020, MaxMem=   805306368 cpu:               1.0 elap:               0.2
 (Enter /home/qslin/g16/l701.exe)
 ... and contract with generalized density number  0.
 Compute integral first derivatives.
 R6Disp: Adding Grimme-D3(BJ) dispersion energy 1st derivatives to the gradient.
 Leave Link  701 at Tue Jun  2 00:04:40 2020, MaxMem=   805306368 cpu:               0.4 elap:               0.1
 (Enter /home/qslin/g16/l702.exe)
 L702 exits ... SP integral derivatives will be done elsewhere.
 Leave Link  702 at Tue Jun  2 00:04:40 2020, MaxMem=   805306368 cpu:               0.1 elap:               0.0
 (Enter /home/qslin/g16/l703.exe)
 Integral derivatives from FoFJK, PRISM(SPDF).
 Compute integral first derivatives, UseDBF=F ICtDFT=           0.
 Calling FoFJK, ICntrl=      2127 FMM=F ISym2X=1 I1Cent= 0 IOpClX= 0 NMat=1 NMatS=1 NMatT=0.
 FoFJK:  IHMeth= 1 ICntrl=    2127 DoSepK=F KAlg= 0 I1Cent=           0 FoldK=F
 IRaf=         0 NMat=       1 IRICut=       1 DoRegI=T DoRafI=F ISym2E= 1 IDoP0=0 IntGTp=1.
 FoFCou: FMM=F IPFlag=           0 FMFlag=      100000 FMFlg1=         800
         NFxFlg=           0 DoJE=F BraDBF=F KetDBF=F FulRan=T
         wScrn=  0.000000 ICntrl=      2127 IOpCl=  0 I1Cent=           0 NGrid=           0
         NMat0=    1 NMatS0=      1 NMatT0=    0 NMatD0=    1 NMtDS0=    0 NMtDT0=    0
 Petite list used in FoFCou.
 Leave Link  703 at Tue Jun  2 00:04:40 2020, MaxMem=   805306368 cpu:               0.7 elap:               0.2
 (Enter /home/qslin/g16/l716.exe)
 Dipole        =-6.57447884D-17 0.00000000D+00-8.25869697D-01
 ***** Axes restored to original set *****
 -------------------------------------------------------------------
 Center     Atomic                   Forces (Hartrees/Bohr)
 Number     Number              X              Y              Z
 -------------------------------------------------------------------
      1        8          -0.000000000    0.000000000    0.000265580
      2        1           0.000000000   -0.000540796   -0.000132790
      3        1           0.000000000    0.000540796   -0.000132790
 -------------------------------------------------------------------
 Cartesian Forces:  Max     0.000540796 RMS     0.000277032
 Leave Link  716 at Tue Jun  2 00:04:40 2020, MaxMem=   805306368 cpu:               0.0 elap:               0.0
 (Enter /home/qslin/g16/l103.exe)

 GradGradGradGradGradGradGradGradGradGradGradGradGradGradGradGradGradGrad
 Berny optimization.
 Using GEDIIS/GDIIS optimizer.
 FormGI is forming the generalized inverse of G from B-inverse, IUseBI=4.
 Internal  Forces:  Max     0.000804178 RMS     0.000541840
 Search for a local minimum.
 Step number   2 out of a maximum of   20
 All quantities printed in internal units (Hartrees-Bohrs-Radians)
 RMS Force = .54184D-03 SwitMx=.10000D-02 MixMth= 2
 Mixed Optimization -- En-DIIS/RFO-DIIS
 Update second derivatives using D2CorX and points    1    2
 DE= -9.25D-04 DEPred=-9.57D-04 R= 9.66D-01
 TightC=F SS=  1.41D+00  RLast= 1.08D-01 DXNew= 5.0454D-01 3.2515D-01
 Trust test= 9.66D-01 RLast= 1.08D-01 DXMaxT set to 3.25D-01
 The second derivative matrix:
                          R1        R2        A1
           R1           0.54542
           R2          -0.01415   0.54542
           A1           0.03159   0.03159   0.16978
 ITU=  1  0
 Use linear search instead of GDIIS.
     Eigenvalues ---    0.16435   0.53671   0.55957
 RFO step:  Lambda=-1.13383822D-06 EMin= 1.64346114D-01
 Quartic linear search produced a step of -0.03607.
 Iteration  1 RMS(Cart)=  0.00267942 RMS(Int)=  0.00000369
 Iteration  2 RMS(Cart)=  0.00000292 RMS(Int)=  0.00000000
 Iteration  3 RMS(Cart)=  0.00000000 RMS(Int)=  0.00000000
 ITry= 1 IFail=0 DXMaxC= 2.81D-03 DCOld= 1.00D+10 DXMaxT= 3.25D-01 DXLimC= 3.00D+00 Rises=F
 ClnCor:  largest displacement from symmetrization is 2.48D-16 for atom     3.
 Variable       Old X    -DE/DX   Delta X   Delta X   Delta X     New X
                                 (Linear)    (Quad)   (Total)
    R1        1.83024   0.00034  -0.00058   0.00097   0.00039   1.83063
    R2        1.83024   0.00034  -0.00058   0.00097   0.00039   1.83063
    A1        1.80467   0.00080   0.00382   0.00060   0.00442   1.80908
         Item               Value     Threshold  Converged?
 Maximum Force            0.000804     0.000450     NO 
 RMS     Force            0.000542     0.000300     NO 
 Maximum Displacement     0.002809     0.001800     NO 
 RMS     Displacement     0.002678     0.001200     NO 
 Predicted change in Energy=-1.973046D-06
 Lowest energy point so far.  Saving SCF results.
 GradGradGradGradGradGradGradGradGradGradGradGradGradGradGradGradGradGrad

 Leave Link  103 at Tue Jun  2 00:04:40 2020, MaxMem=   805306368 cpu:               0.1 elap:               0.0
 (Enter /home/qslin/g16/l202.exe)
                          Input orientation:                          
 ---------------------------------------------------------------------
 Center     Atomic      Atomic             Coordinates (Angstroms)
 Number     Number       Type             X           Y           Z
 ---------------------------------------------------------------------
      1          8           0        0.000000   -0.000000   -0.140491
      2          1           0        0.000000   -0.761556    0.458225
      3          1           0       -0.000000    0.761556    0.458225
 ---------------------------------------------------------------------
                    Distance matrix (angstroms):
                    1          2          3
     1  O    0.000000
     2  H    0.968726   0.000000
     3  H    0.968726   1.523113   0.000000
 Stoichiometry    H2O
 Framework group  C2V[C2(O),SGV(H2)]
 Deg. of freedom     2
 Full point group                 C2V     NOp   4
 RotChk:  IX=0 Diff= 2.97D-16
 Largest Abelian subgroup         C2V     NOp   4
 Largest concise Abelian subgroup C2      NOp   2
                         Standard orientation:                         
 ---------------------------------------------------------------------
 Center     Atomic      Atomic             Coordinates (Angstroms)
 Number     Number       Type             X           Y           Z
 ---------------------------------------------------------------------
      1          8           0        0.000000   -0.000000    0.119743
      2          1           0       -0.000000    0.761556   -0.478973
      3          1           0       -0.000000   -0.761556   -0.478973
 ---------------------------------------------------------------------
 Rotational constants (GHZ):         787.5989801         432.3126510         279.1095636
 Leave Link  202 at Tue Jun  2 00:04:40 2020, MaxMem=   805306368 cpu:               0.0 elap:               0.0
 (Enter /home/qslin/g16/l301.exe)
 Standard basis: 6-31G(d) (6D, 7F)
 Ernie: Thresh=  0.10000D-02 Tol=  0.10000D-05 Strict=F.
 There are    10 symmetry adapted cartesian basis functions of A1  symmetry.
 There are     1 symmetry adapted cartesian basis functions of A2  symmetry.
 There are     3 symmetry adapted cartesian basis functions of B1  symmetry.
 There are     5 symmetry adapted cartesian basis functions of B2  symmetry.
 There are    10 symmetry adapted basis functions of A1  symmetry.
 There are     1 symmetry adapted basis functions of A2  symmetry.
 There are     3 symmetry adapted basis functions of B1  symmetry.
 There are     5 symmetry adapted basis functions of B2  symmetry.
    19 basis functions,    36 primitive gaussians,    19 cartesian basis functions
     5 alpha electrons        5 beta electrons
       nuclear repulsion energy         9.0876098991 Hartrees.
 IExCor=  402 DFT=T Ex+Corr=B3LYP ExCW=0 ScaHFX=  0.200000
 ScaDFX=  0.800000  0.720000  1.000000  0.810000 ScalE2=  1.000000  1.000000
 IRadAn=      5 IRanWt=     -1 IRanGd=            0 ICorTp=0 IEmpDi=141
 NAtoms=    3 NActive=    3 NUniq=    2 SFac= 2.25D+00 NAtFMM=   60 NAOKFM=F Big=F
 Integral buffers will be    131072 words long.
 Raffenetti 2 integral format.
 Two-electron integral symmetry is turned on.
 R6Disp:  Grimme-D3(BJ) Dispersion energy=       -0.0005739191 Hartrees.
 Nuclear repulsion after empirical dispersion term =        9.0870359800 Hartrees.
 Leave Link  301 at Tue Jun  2 00:04:40 2020, MaxMem=   805306368 cpu:               0.1 elap:               0.0
 (Enter /home/qslin/g16/l302.exe)
 NPDir=0 NMtPBC=     1 NCelOv=     1 NCel=       1 NClECP=     1 NCelD=      1
         NCelK=      1 NCelE2=     1 NClLst=     1 CellRange=     0.0.
 One-electron integrals computed using PRISM.
 One-electron integral symmetry used in STVInt
 NBasis=    19 RedAO= T EigKep=  2.27D-02  NBF=    10     1     3     5
 NBsUse=    19 1.00D-06 EigRej= -1.00D+00 NBFU=    10     1     3     5
 Precomputing XC quadrature grid using
 IXCGrd= 4 IRadAn=           5 IRanWt=          -1 IRanGd=           0 AccXCQ= 0.00D+00.
 Generated NRdTot=       0 NPtTot=           0 NUsed=           0 NTot=          32
 NSgBfM=    19    19    19    19    19 MxSgAt=     3 MxSgA2=     3.
 Leave Link  302 at Tue Jun  2 00:04:41 2020, MaxMem=   805306368 cpu:               0.3 elap:               0.1
 (Enter /home/qslin/g16/l303.exe)
 DipDrv:  MaxL=1.
 Leave Link  303 at Tue Jun  2 00:04:41 2020, MaxMem=   805306368 cpu:               0.1 elap:               0.0
 (Enter /home/qslin/g16/l401.exe)
 Initial guess from the checkpoint file:  "EtOH-P2.chk"
 B after Tr=    -0.000000   -0.000000   -0.000000
         Rot=    1.000000    0.000000    0.000000    0.000000 Ang=   0.00 deg.
 Guess basis will be translated and rotated to current coordinates.
 JPrj=2 DoOrth=T DoCkMO=T.
 Initial guess orbital symmetries:
       Occupied  (A1) (A1) (B2) (A1) (B1)
       Virtual   (A1) (B2) (B2) (A1) (B1) (A1) (B2) (A1) (A1) (A2)
                 (B1) (A1) (B2) (A1)
 The electronic state of the initial guess is 1-A1.
 Leave Link  401 at Tue Jun  2 00:04:41 2020, MaxMem=   805306368 cpu:               0.2 elap:               0.1
 (Enter /home/qslin/g16/l502.exe)
 Keep R1 ints in memory in symmetry-blocked form, NReq=3466140.
 FoFCou: FMM=F IPFlag=           0 FMFlag=           0 FMFlg1=           0
         NFxFlg=           0 DoJE=F BraDBF=F KetDBF=F FulRan=T
         wScrn=  0.000000 ICntrl=       600 IOpCl=  0 I1Cent=           0 NGrid=           0
         NMat0=    1 NMatS0=    190 NMatT0=    0 NMatD0=    1 NMtDS0=    0 NMtDT0=    0
 Petite list used in FoFCou.
 Closed shell SCF:
 Using DIIS extrapolation, IDIIS=  1040.
 NGot=   805306368 LenX=   805298438 LenY=   805297556
 Requested convergence on RMS density matrix=1.00D-08 within 128 cycles.
 Requested convergence on MAX density matrix=1.00D-06.
 Requested convergence on             energy=1.00D-06.
 No special actions if energy rises.

 Cycle   1  Pass 1  IDiag  1:
 E= -76.4095272581302    
 DIIS: error= 1.54D-04 at cycle   1 NSaved=   1.
 NSaved= 1 IEnMin= 1 EnMin= -76.4095272581302     IErMin= 1 ErrMin= 1.54D-04
 ErrMax= 1.54D-04  0.00D+00 EMaxC= 1.00D-01 BMatC= 5.77D-07 BMatP= 5.77D-07
 IDIUse=3 WtCom= 9.98D-01 WtEn= 1.54D-03
 Coeff-Com:  0.100D+01
 Coeff-En:   0.100D+01
 Coeff:      0.100D+01
 Gap=     0.354 Goal=   None    Shift=    0.000
 RMSDP=5.41D-05 MaxDP=3.38D-04              OVMax= 3.53D-04

 Cycle   2  Pass 1  IDiag  1:
 E= -76.4095278852062     Delta-E=       -0.000000627076 Rises=F Damp=F
 DIIS: error= 2.96D-05 at cycle   2 NSaved=   2.
 NSaved= 2 IEnMin= 2 EnMin= -76.4095278852062     IErMin= 2 ErrMin= 2.96D-05
 ErrMax= 2.96D-05  0.00D+00 EMaxC= 1.00D-01 BMatC= 1.51D-08 BMatP= 5.77D-07
 IDIUse=1 WtCom= 1.00D+00 WtEn= 0.00D+00
 Coeff-Com:  0.605D-01 0.940D+00
 Coeff:      0.605D-01 0.940D+00
 Gap=     0.354 Goal=   None    Shift=    0.000
 RMSDP=5.44D-06 MaxDP=2.44D-05 DE=-6.27D-07 OVMax= 4.40D-05

 Cycle   3  Pass 1  IDiag  1:
 E= -76.4095278962789     Delta-E=       -0.000000011073 Rises=F Damp=F
 DIIS: error= 1.16D-05 at cycle   3 NSaved=   3.
 NSaved= 3 IEnMin= 3 EnMin= -76.4095278962789     IErMin= 3 ErrMin= 1.16D-05
 ErrMax= 1.16D-05  0.00D+00 EMaxC= 1.00D-01 BMatC= 2.76D-09 BMatP= 1.51D-08
 IDIUse=1 WtCom= 1.00D+00 WtEn= 0.00D+00
 Coeff-Com: -0.109D-01 0.262D+00 0.749D+00
 Coeff:     -0.109D-01 0.262D+00 0.749D+00
 Gap=     0.354 Goal=   None    Shift=    0.000
 RMSDP=2.30D-06 MaxDP=1.65D-05 DE=-1.11D-08 OVMax= 1.59D-05

 Cycle   4  Pass 1  IDiag  1:
 E= -76.4095278975271     Delta-E=       -0.000000001248 Rises=F Damp=F
 DIIS: error= 7.43D-06 at cycle   4 NSaved=   4.
 NSaved= 4 IEnMin= 4 EnMin= -76.4095278975271     IErMin= 4 ErrMin= 7.43D-06
 ErrMax= 7.43D-06  0.00D+00 EMaxC= 1.00D-01 BMatC= 9.57D-10 BMatP= 2.76D-09
 IDIUse=1 WtCom= 1.00D+00 WtEn= 0.00D+00
 Coeff-Com: -0.848D-02 0.108D+00 0.439D+00 0.462D+00
 Coeff:     -0.848D-02 0.108D+00 0.439D+00 0.462D+00
 Gap=     0.354 Goal=   None    Shift=    0.000
 RMSDP=1.10D-06 MaxDP=8.31D-06 DE=-1.25D-09 OVMax= 7.67D-06

 Cycle   5  Pass 1  IDiag  1:
 E= -76.4095278982048     Delta-E=       -0.000000000678 Rises=F Damp=F
 DIIS: error= 1.04D-07 at cycle   5 NSaved=   5.
 NSaved= 5 IEnMin= 5 EnMin= -76.4095278982048     IErMin= 5 ErrMin= 1.04D-07
 ErrMax= 1.04D-07  0.00D+00 EMaxC= 1.00D-01 BMatC= 2.12D-13 BMatP= 9.57D-10
 IDIUse=1 WtCom= 1.00D+00 WtEn= 0.00D+00
 Coeff-Com:  0.377D-03-0.637D-02-0.220D-01-0.972D-02 0.104D+01
 Coeff:      0.377D-03-0.637D-02-0.220D-01-0.972D-02 0.104D+01
 Gap=     0.354 Goal=   None    Shift=    0.000
 RMSDP=3.68D-08 MaxDP=1.84D-07 DE=-6.78D-10 OVMax= 3.45D-07

 Cycle   6  Pass 1  IDiag  1:
 E= -76.4095278982051     Delta-E=       -0.000000000000 Rises=F Damp=F
 DIIS: error= 2.05D-08 at cycle   6 NSaved=   6.
 NSaved= 6 IEnMin= 6 EnMin= -76.4095278982051     IErMin= 6 ErrMin= 2.05D-08
 ErrMax= 2.05D-08  0.00D+00 EMaxC= 1.00D-01 BMatC= 5.54D-15 BMatP= 2.12D-13
 IDIUse=1 WtCom= 1.00D+00 WtEn= 0.00D+00
 Coeff-Com:  0.315D-04-0.401D-03-0.167D-02 0.682D-04-0.473D-01 0.105D+01
 Coeff:      0.315D-04-0.401D-03-0.167D-02 0.682D-04-0.473D-01 0.105D+01
 Gap=     0.354 Goal=   None    Shift=    0.000
 RMSDP=3.64D-09 MaxDP=2.54D-08 DE=-3.69D-13 OVMax= 3.51D-08

 SCF Done:  E(RB3LYP) =  -76.4095278982     A.U. after    6 cycles
            NFock=  6  Conv=0.36D-08     -V/T= 2.0078
 KE= 7.581952665866D+01 PE=-1.987554825859D+02 EE= 3.743939204909D+01
 Leave Link  502 at Tue Jun  2 00:04:41 2020, MaxMem=   805306368 cpu:               1.0 elap:               0.2
 (Enter /home/qslin/g16/l701.exe)
 ... and contract with generalized density number  0.
 Compute integral first derivatives.
 R6Disp: Adding Grimme-D3(BJ) dispersion energy 1st derivatives to the gradient.
 Leave Link  701 at Tue Jun  2 00:04:41 2020, MaxMem=   805306368 cpu:               0.4 elap:               0.1
 (Enter /home/qslin/g16/l702.exe)
 L702 exits ... SP integral derivatives will be done elsewhere.
 Leave Link  702 at Tue Jun  2 00:04:41 2020, MaxMem=   805306368 cpu:               0.0 elap:               0.0
 (Enter /home/qslin/g16/l703.exe)
 Integral derivatives from FoFJK, PRISM(SPDF).
 Compute integral first derivatives, UseDBF=F ICtDFT=           0.
 Calling FoFJK, ICntrl=      2127 FMM=F ISym2X=1 I1Cent= 0 IOpClX= 0 NMat=1 NMatS=1 NMatT=0.
 FoFJK:  IHMeth= 1 ICntrl=    2127 DoSepK=F KAlg= 0 I1Cent=           0 FoldK=F
 IRaf=         0 NMat=       1 IRICut=       1 DoRegI=T DoRafI=F ISym2E= 1 IDoP0=0 IntGTp=1.
 FoFCou: FMM=F IPFlag=           0 FMFlag=      100000 FMFlg1=         800
         NFxFlg=           0 DoJE=F BraDBF=F KetDBF=F FulRan=T
         wScrn=  0.000000 ICntrl=      2127 IOpCl=  0 I1Cent=           0 NGrid=           0
         NMat0=    1 NMatS0=      1 NMatT0=    0 NMatD0=    1 NMtDS0=    0 NMtDT0=    0
 Petite list used in FoFCou.
 Leave Link  703 at Tue Jun  2 00:04:41 2020, MaxMem=   805306368 cpu:               0.8 elap:               0.2
 (Enter /home/qslin/g16/l716.exe)
 Dipole        =-6.59032041D-17 0.00000000D+00-8.24371984D-01
 ***** Axes restored to original set *****
 -------------------------------------------------------------------
 Center     Atomic                   Forces (Hartrees/Bohr)
 Number     Number              X              Y              Z
 -------------------------------------------------------------------
      1        8          -0.000000000    0.000000000   -0.000015065
      2        1           0.000000000   -0.000003076    0.000007532
      3        1           0.000000000    0.000003076    0.000007532
 -------------------------------------------------------------------
 Cartesian Forces:  Max     0.000015065 RMS     0.000006319
 Leave Link  716 at Tue Jun  2 00:04:41 2020, MaxMem=   805306368 cpu:               0.1 elap:               0.0
 (Enter /home/qslin/g16/l103.exe)

 GradGradGradGradGradGradGradGradGradGradGradGradGradGradGradGradGradGrad
 Berny optimization.
 Using GEDIIS/GDIIS optimizer.
 FormGI is forming the generalized inverse of G from B-inverse, IUseBI=4.
 Internal  Forces:  Max     0.000007360 RMS     0.000007170
 Search for a local minimum.
 Step number   3 out of a maximum of   20
 All quantities printed in internal units (Hartrees-Bohrs-Radians)
 RMS Force = .71701D-05 SwitMx=.10000D-02 MixMth= 2
 Mixed Optimization -- En-DIIS/RFO-DIIS
 Swapping is turned off.
 Update second derivatives using D2CorX and points    1    2    3
 DE= -1.89D-06 DEPred=-1.97D-06 R= 9.60D-01
 TightC=F SS=  1.41D+00  RLast= 4.45D-03 DXNew= 5.4684D-01 1.3357D-02
 Trust test= 9.60D-01 RLast= 4.45D-03 DXMaxT set to 3.25D-01
 The second derivative matrix:
                          R1        R2        A1
           R1           0.54191
           R2          -0.01766   0.54191
           A1           0.02959   0.02959   0.17847
 ITU=  1  1  0
     Eigenvalues ---    0.17348   0.52925   0.55957
 En-DIIS/RFO-DIIS/Sim-DIIS IScMMF=       -3 using points:     3    2
 RFO step:  Lambda= 0.00000000D+00.
 NNeg= 0 NGDIIS= 2 SimSw=  2.50D-03 Rises=F DC= -1.89D-06 SmlDif=  1.00D-05
 NRisDI= 0 DoIntr=F SqrtH=F CThrHd= 10.0 CDAdj=  3.0
 RMS Error=  0.2994416393D-04 NUsed= 2 OKEnD=F EnDIS=F
 InvSVX:  RCond= 2.23D-05 Info=           0 Equed=N FErr=  8.98D-16 BErr=  6.98D-17
 DidBck=F Rises=F RFO-DIIS coefs:    0.99025    0.00975
 Iteration  1 RMS(Cart)=  0.00002334 RMS(Int)=  0.00000000
 Iteration  2 RMS(Cart)=  0.00000000 RMS(Int)=  0.00000000
 ITry= 1 IFail=0 DXMaxC= 2.90D-05 DCOld= 1.00D+10 DXMaxT= 3.25D-01 DXLimC= 3.00D+00 Rises=F
 ClnCor:  largest displacement from symmetrization is 2.48D-16 for atom     3.
 Variable       Old X    -DE/DX   Delta X   Delta X   Delta X     New X
                                 (Linear)    (Quad)   (Total)
    R1        1.83063   0.00001  -0.00000   0.00002   0.00002   1.83064
    R2        1.83063   0.00001  -0.00000   0.00002   0.00002   1.83064
    A1        1.80908  -0.00001  -0.00004  -0.00000  -0.00005   1.80904
         Item               Value     Threshold  Converged?
 Maximum Force            0.000007     0.000450     YES
 RMS     Force            0.000007     0.000300     YES
 Maximum Displacement     0.000029     0.001800     YES
 RMS     Displacement     0.000023     0.001200     YES
 Predicted change in Energy=-2.854629D-10
 Optimization completed.
    -- Stationary point found.
                           ----------------------------
                           !   Optimized Parameters   !
                           ! (Angstroms and Degrees)  !
 --------------------------                            --------------------------
 ! Name  Definition              Value          Derivative Info.                !
 --------------------------------------------------------------------------------
 ! R1    R(1,2)                  0.9687         -DE/DX =    0.0                 !
 ! R2    R(1,3)                  0.9687         -DE/DX =    0.0                 !
 ! A1    A(2,1,3)              103.6529         -DE/DX =    0.0                 !
 --------------------------------------------------------------------------------
 Lowest energy point so far.  Saving SCF results.
 Largest change from initial coordinates is atom    2       0.042 Angstoms.
 GradGradGradGradGradGradGradGradGradGradGradGradGradGradGradGradGradGrad

 Leave Link  103 at Tue Jun  2 00:04:42 2020, MaxMem=   805306368 cpu:               0.1 elap:               0.0
 (Enter /home/qslin/g16/l202.exe)
                          Input orientation:                          
 ---------------------------------------------------------------------
 Center     Atomic      Atomic             Coordinates (Angstroms)
 Number     Number       Type             X           Y           Z
 ---------------------------------------------------------------------
      1          8           0        0.000000   -0.000000   -0.140491
      2          1           0        0.000000   -0.761556    0.458225
      3          1           0       -0.000000    0.761556    0.458225
 ---------------------------------------------------------------------
                    Distance matrix (angstroms):
                    1          2          3
     1  O    0.000000
     2  H    0.968726   0.000000
     3  H    0.968726   1.523113   0.000000
 Stoichiometry    H2O
 Framework group  C2V[C2(O),SGV(H2)]
 Deg. of freedom     2
 Full point group                 C2V     NOp   4
 RotChk:  IX=0 Diff= 5.89D-16
 Largest Abelian subgroup         C2V     NOp   4
 Largest concise Abelian subgroup C2      NOp   2
                         Standard orientation:                         
 ---------------------------------------------------------------------
 Center     Atomic      Atomic             Coordinates (Angstroms)
 Number     Number       Type             X           Y           Z
 ---------------------------------------------------------------------
      1          8           0        0.000000    0.000000    0.119743
      2          1           0       -0.000000    0.761556   -0.478973
      3          1           0       -0.000000   -0.761556   -0.478973
 ---------------------------------------------------------------------
 Rotational constants (GHZ):         787.5989801         432.3126510         279.1095636
 Leave Link  202 at Tue Jun  2 00:04:42 2020, MaxMem=   805306368 cpu:               0.0 elap:               0.0
 (Enter /home/qslin/g16/l601.exe)
 Copying SCF densities to generalized density rwf, IOpCl= 0 IROHF=0.

 **********************************************************************

            Population analysis using the SCF density.

 **********************************************************************

 Orbital symmetries:
       Occupied  (A1) (A1) (B2) (A1) (B1)
       Virtual   (A1) (B2) (B2) (A1) (B1) (A1) (B2) (A1) (A1) (A2)
                 (B1) (A1) (B2) (A1)
 The electronic state is 1-A1.
 Alpha  occ. eigenvalues --  -19.13817  -0.99788  -0.51714  -0.37221  -0.29119
 Alpha virt. eigenvalues --    0.06260   0.14812   0.77246   0.86092   0.89078
 Alpha virt. eigenvalues --    0.89509   1.06579   1.19343   1.72910   1.74637
 Alpha virt. eigenvalues --    1.77981   2.28057   2.57710   3.55190
          Condensed to atoms (all electrons):
               1          2          3
     1  O    8.289166   0.242578   0.242578
     2  H    0.242578   0.393669  -0.023408
     3  H    0.242578  -0.023408   0.393669
 Mulliken charges:
               1
     1  O   -0.774322
     2  H    0.387161
     3  H    0.387161
 Sum of Mulliken charges =  -0.00000
 Mulliken charges with hydrogens summed into heavy atoms:
               1
     1  O   -0.000000
 Electronic spatial extent (au):  <R**2>=             19.1864
 Charge=             -0.0000 electrons
 Dipole moment (field-independent basis, Debye):
    X=             -0.0000    Y=              0.0000    Z=             -2.0953  Tot=              2.0953
 Quadrupole moment (field-independent basis, Debye-Ang):
   XX=             -7.2039   YY=             -4.2865   ZZ=             -5.9898
   XY=              0.0000   XZ=              0.0000   YZ=             -0.0000
 Traceless Quadrupole moment (field-independent basis, Debye-Ang):
   XX=             -1.3771   YY=              1.5402   ZZ=             -0.1631
   XY=              0.0000   XZ=              0.0000   YZ=             -0.0000
 Octapole moment (field-independent basis, Debye-Ang**2):
  XXX=              0.0000  YYY=              0.0000  ZZZ=             -1.2171  XYY=             -0.0000
  XXY=             -0.0000  XXZ=             -0.3236  XZZ=             -0.0000  YZZ=              0.0000
  YYZ=             -1.2129  XYZ=             -0.0000
 Hexadecapole moment (field-independent basis, Debye-Ang**3):
 XXXX=             -5.2143 YYYY=             -6.0610 ZZZZ=             -6.2946 XXXY=             -0.0000
 XXXZ=             -0.0000 YYYX=             -0.0000 YYYZ=             -0.0000 ZZZX=             -0.0000
 ZZZY=             -0.0000 XXYY=             -2.1174 XXZZ=             -1.9680 YYZZ=             -1.7416
 XXYZ=              0.0000 YYXZ=              0.0000 ZZXY=              0.0000
 N-N= 9.087035979969D+00 E-N=-1.987554821957D+02  KE= 7.581952665866D+01
 Symmetry A1   KE= 6.765922239548D+01
 Symmetry A2   KE= 4.951838809637D-35
 Symmetry B1   KE= 4.599931440849D+00
 Symmetry B2   KE= 3.560372822327D+00
 No NMR shielding tensors so no spin-rotation constants.
 Leave Link  601 at Tue Jun  2 00:04:42 2020, MaxMem=   805306368 cpu:               0.3 elap:               0.1
 (Enter /home/qslin/g16/l9999.exe)
 1\1\GINC-QSLIN\FOpt\RB3LYP\6-31G(d)\H2O1\QSLIN\02-Jun-2020\0\\#p opt=c
 alcfc freq b3lyp/6-31g* em=gd3bj\\optimize transition state and freque
 ncy\\0,1\O,0.,0.,-0.140491348\H,0.,-0.7615563752,0.458225059\H,0.,0.76
 15563752,0.458225059\\Version=ES64L-G16RevA.03\State=1-A1\HF=-76.40952
 79\RMSD=3.640e-09\RMSF=6.319e-06\Dipole=0.,0.,0.824372\Quadrupole=-1.0
 23872,1.1451147,-0.1212427,0.,0.,0.\PG=C02V [C2(O1),SGV(H2)]\\@


 PICNIC:  A SNACK IN THE GRASS.
 Leave Link 9999 at Tue Jun  2 00:04:42 2020, MaxMem=   805306368 cpu:               0.1 elap:               0.0
 Job cpu time:       0 days  0 hours  0 minutes 17.5 seconds.
 Elapsed time:       0 days  0 hours  0 minutes  4.5 seconds.
 File lengths (MBytes):  RWF=      6 Int=      0 D2E=      0 Chk=      1 Scr=      1
 Normal termination of Gaussian 16 at Tue Jun  2 00:04:42 2020.
 (Enter /home/qslin/g16/l1.exe)
 Link1:  Proceeding to internal job step number  2.
 --------------------------------------------------------------------
 #P Geom=AllCheck Guess=TCheck SCRF=Check GenChk RB3LYP/6-31G(d) Freq
 --------------------------------------------------------------------
 1/10=4,29=7,30=1,38=1,40=1/1,3;
 2/12=2,40=1/2;
 3/5=1,6=6,7=1,11=2,14=-4,25=1,30=1,70=2,71=2,74=-5,116=1,124=41,140=1/1,2,3;
 4/5=101/1;
 5/5=2,38=6,98=1/2;
 8/6=4,10=90,11=11/1;
 11/6=1,8=1,9=11,15=111,16=1/1,2,10;
 10/6=1/2;
 6/7=2,8=2,9=2,10=2,28=1/1;
 7/8=1,10=1,25=1/1,2,3,16;
 1/10=4,30=1/3;
 99//99;
 Leave Link    1 at Tue Jun  2 00:04:42 2020, MaxMem=   805306368 cpu:               0.1 elap:               0.0
 (Enter /home/qslin/g16/l101.exe)
 Structure from the checkpoint file:  "EtOH-P2.chk"
 ---------------------------------------
 optimize transition state and frequency
 ---------------------------------------
 Charge =  0 Multiplicity = 1
 Redundant internal coordinates found in file.  (old form).
 O,0,0.,0.,-0.140491348
 H,0,0.,-0.7615563752,0.458225059
 H,0,0.,0.7615563752,0.458225059
 Recover connectivity data from disk.
 ITRead=  0  0  0
 MicOpt= -1 -1 -1
 NAtoms=      3 NQM=        3 NQMF=       0 NMMI=      0 NMMIF=      0
                NMic=       0 NMicF=      0.
                    Isotopes and Nuclear Properties:
 (Nuclear quadrupole moments (NQMom) in fm**2, nuclear magnetic moments (NMagM)
  in nuclear magnetons)

  Atom         1           2           3
 IAtWgt=          16           1           1
 AtmWgt=  15.9949146   1.0078250   1.0078250
 NucSpn=           0           1           1
 AtZEff=   5.6000000   1.0000000   1.0000000
 NQMom=    0.0000000   0.0000000   0.0000000
 NMagM=    0.0000000   2.7928460   2.7928460
 AtZNuc=   8.0000000   1.0000000   1.0000000
 Leave Link  101 at Tue Jun  2 00:04:42 2020, MaxMem=   805306368 cpu:               2.4 elap:               0.6
 (Enter /home/qslin/g16/l103.exe)

 GradGradGradGradGradGradGradGradGradGradGradGradGradGradGradGradGradGrad
 Berny optimization.
 Initialization pass.
                           ----------------------------
                           !    Initial Parameters    !
                           ! (Angstroms and Degrees)  !
 --------------------------                            --------------------------
 ! Name  Definition              Value          Derivative Info.                !
 --------------------------------------------------------------------------------
 ! R1    R(1,2)                  0.9687         calculate D2E/DX2 analytically  !
 ! R2    R(1,3)                  0.9687         calculate D2E/DX2 analytically  !
 ! A1    A(2,1,3)              103.6529         calculate D2E/DX2 analytically  !
 --------------------------------------------------------------------------------
 Trust Radius=3.00D-01 FncErr=1.00D-07 GrdErr=1.00D-07 EigMax=2.50D+02 EigMin=1.00D-04
 Number of steps in this run=      2 maximum allowed number of steps=      2.
 GradGradGradGradGradGradGradGradGradGradGradGradGradGradGradGradGradGrad

 Leave Link  103 at Tue Jun  2 00:04:42 2020, MaxMem=   805306368 cpu:               0.0 elap:               0.0
 (Enter /home/qslin/g16/l202.exe)
                          Input orientation:                          
 ---------------------------------------------------------------------
 Center     Atomic      Atomic             Coordinates (Angstroms)
 Number     Number       Type             X           Y           Z
 ---------------------------------------------------------------------
      1          8           0        0.000000   -0.000000   -0.140491
      2          1           0        0.000000   -0.761556    0.458225
      3          1           0       -0.000000    0.761556    0.458225
 ---------------------------------------------------------------------
                    Distance matrix (angstroms):
                    1          2          3
     1  O    0.000000
     2  H    0.968726   0.000000
     3  H    0.968726   1.523113   0.000000
 Stoichiometry    H2O
 Framework group  C2V[C2(O),SGV(H2)]
 Deg. of freedom     2
 Full point group                 C2V     NOp   4
 RotChk:  IX=0 Diff= 1.02D-15
 Largest Abelian subgroup         C2V     NOp   4
 Largest concise Abelian subgroup C2      NOp   2
                         Standard orientation:                         
 ---------------------------------------------------------------------
 Center     Atomic      Atomic             Coordinates (Angstroms)
 Number     Number       Type             X           Y           Z
 ---------------------------------------------------------------------
      1          8           0        0.000000    0.000000    0.119743
      2          1           0       -0.000000    0.761556   -0.478973
      3          1           0       -0.000000   -0.761556   -0.478973
 ---------------------------------------------------------------------
 Rotational constants (GHZ):         787.5989801         432.3126510         279.1095636
 Leave Link  202 at Tue Jun  2 00:04:43 2020, MaxMem=   805306368 cpu:               0.0 elap:               0.0
 (Enter /home/qslin/g16/l301.exe)
 Standard basis: 6-31G(d) (6D, 7F)
 Ernie: Thresh=  0.10000D-02 Tol=  0.10000D-05 Strict=F.
 There are    10 symmetry adapted cartesian basis functions of A1  symmetry.
 There are     1 symmetry adapted cartesian basis functions of A2  symmetry.
 There are     3 symmetry adapted cartesian basis functions of B1  symmetry.
 There are     5 symmetry adapted cartesian basis functions of B2  symmetry.
 There are    10 symmetry adapted basis functions of A1  symmetry.
 There are     1 symmetry adapted basis functions of A2  symmetry.
 There are     3 symmetry adapted basis functions of B1  symmetry.
 There are     5 symmetry adapted basis functions of B2  symmetry.
    19 basis functions,    36 primitive gaussians,    19 cartesian basis functions
     5 alpha electrons        5 beta electrons
       nuclear repulsion energy         9.0876098991 Hartrees.
 IExCor=  402 DFT=T Ex+Corr=B3LYP ExCW=0 ScaHFX=  0.200000
 ScaDFX=  0.800000  0.720000  1.000000  0.810000 ScalE2=  1.000000  1.000000
 IRadAn=      5 IRanWt=     -1 IRanGd=            0 ICorTp=0 IEmpDi=141
 NAtoms=    3 NActive=    3 NUniq=    2 SFac= 2.25D+00 NAtFMM=   60 NAOKFM=F Big=F
 Integral buffers will be    131072 words long.
 Raffenetti 2 integral format.
 Two-electron integral symmetry is turned on.
 R6Disp:  Grimme-D3(BJ) Dispersion energy=       -0.0005739191 Hartrees.
 Nuclear repulsion after empirical dispersion term =        9.0870359800 Hartrees.
 Leave Link  301 at Tue Jun  2 00:04:43 2020, MaxMem=   805306368 cpu:               0.1 elap:               0.0
 (Enter /home/qslin/g16/l302.exe)
 NPDir=0 NMtPBC=     1 NCelOv=     1 NCel=       1 NClECP=     1 NCelD=      1
         NCelK=      1 NCelE2=     1 NClLst=     1 CellRange=     0.0.
 One-electron integrals computed using PRISM.
 One-electron integral symmetry used in STVInt
 NBasis=    19 RedAO= T EigKep=  2.27D-02  NBF=    10     1     3     5
 NBsUse=    19 1.00D-06 EigRej= -1.00D+00 NBFU=    10     1     3     5
 Precomputing XC quadrature grid using
 IXCGrd= 4 IRadAn=           5 IRanWt=          -1 IRanGd=           0 AccXCQ= 0.00D+00.
 Generated NRdTot=       0 NPtTot=           0 NUsed=           0 NTot=          32
 NSgBfM=    19    19    19    19    19 MxSgAt=     3 MxSgA2=     3.
 Leave Link  302 at Tue Jun  2 00:04:43 2020, MaxMem=   805306368 cpu:               0.4 elap:               0.1
 (Enter /home/qslin/g16/l303.exe)
 DipDrv:  MaxL=1.
 Leave Link  303 at Tue Jun  2 00:04:43 2020, MaxMem=   805306368 cpu:               0.1 elap:               0.0
 (Enter /home/qslin/g16/l401.exe)
 Initial guess from the checkpoint file:  "EtOH-P2.chk"
 B after Tr=    -0.000000    0.000000    0.000000
         Rot=    1.000000    0.000000    0.000000    0.000000 Ang=   0.00 deg.
 Guess basis will be translated and rotated to current coordinates.
 JPrj=2 DoOrth=T DoCkMO=T.
 Initial guess orbital symmetries:
       Occupied  (A1) (A1) (B2) (A1) (B1)
       Virtual   (A1) (B2) (B2) (A1) (B1) (A1) (B2) (A1) (A1) (A2)
                 (B1) (A1) (B2) (A1)
 The electronic state of the initial guess is 1-A1.
 Leave Link  401 at Tue Jun  2 00:04:43 2020, MaxMem=   805306368 cpu:               0.2 elap:               0.0
 (Enter /home/qslin/g16/l502.exe)
 Keep R1 ints in memory in symmetry-blocked form, NReq=3466140.
 FoFCou: FMM=F IPFlag=           0 FMFlag=           0 FMFlg1=           0
         NFxFlg=           0 DoJE=F BraDBF=F KetDBF=F FulRan=T
         wScrn=  0.000000 ICntrl=       600 IOpCl=  0 I1Cent=           0 NGrid=           0
         NMat0=    1 NMatS0=    190 NMatT0=    0 NMatD0=    1 NMtDS0=    0 NMtDT0=    0
 Petite list used in FoFCou.
 Closed shell SCF:
 Using DIIS extrapolation, IDIIS=  1040.
 NGot=   805306368 LenX=   805298438 LenY=   805297556
 Requested convergence on RMS density matrix=1.00D-08 within 128 cycles.
 Requested convergence on MAX density matrix=1.00D-06.
 Requested convergence on             energy=1.00D-06.
 No special actions if energy rises.

 Cycle   1  Pass 1  IDiag  1:
 E= -76.4095278982052    
 DIIS: error= 4.33D-10 at cycle   1 NSaved=   1.
 NSaved= 1 IEnMin= 1 EnMin= -76.4095278982052     IErMin= 1 ErrMin= 4.33D-10
 ErrMax= 4.33D-10  0.00D+00 EMaxC= 1.00D-01 BMatC= 2.57D-18 BMatP= 2.57D-18
 IDIUse=1 WtCom= 1.00D+00 WtEn= 0.00D+00
 Coeff-Com:  0.100D+01
 Coeff:      0.100D+01
 Gap=     0.354 Goal=   None    Shift=    0.000
 Skip diagonalization as Alpha Fock matrix is already diagonal.
 RMSDP=0.00D+00 MaxDP=0.00D+00              OVMax= 0.00D+00

 SCF Done:  E(RB3LYP) =  -76.4095278982     A.U. after    1 cycles
            NFock=  1  Conv=0.00D+00     -V/T= 2.0078
 KE= 7.581952665866D+01 PE=-1.987554821957D+02 EE= 3.743939165889D+01
 Leave Link  502 at Tue Jun  2 00:04:43 2020, MaxMem=   805306368 cpu:               0.7 elap:               0.2
 (Enter /home/qslin/g16/l801.exe)
 DoSCS=F DFT=T ScalE2(SS,OS)=  1.000000  1.000000
[...]
 F. Ding, F. Lipparini, F. Egidi, J. Goings, B. Peng, A. Petrone, 
 T. Henderson, D. Ranasinghe, V. G. Zakrzewski, J. Gao, N. Rega, 
 G. Zheng, W. Liang, M. Hada, M. Ehara, K. Toyota, R. Fukuda, 
 J. Hasegawa, M. Ishida, T. Nakajima, Y. Honda, O. Kitao, H. Nakai, 
 T. Vreven, K. Throssell, J. A. Montgomery, Jr., J. E. Peralta, 
 F. Ogliaro, M. J. Bearpark, J. J. Heyd, E. N. Brothers, K. N. Kudin, 
 V. N. Staroverov, T. A. Keith, R. Kobayashi, J. Normand, 
 K. Raghavachari, A. P. Rendell, J. C. Burant, S. S. Iyengar, 
 J. Tomasi, M. Cossi, J. M. Millam, M. Klene, C. Adamo, R. Cammi, 
 J. W. Ochterski, R. L. Martin, K. Morokuma, O. Farkas, 
 J. B. Foresman, and D. J. Fox, Gaussian, Inc., Wallingford CT, 2016.
 
 ******************************************
 Gaussian 16:  ES64L-G16RevA.03 25-Dec-2016
                 2-Jun-2020 
 ******************************************
 %mem=6GB
 %nprocshared=4
 Will use up to    4 processors via shared memory.
 %chk=EtOH-P2.chk
 -------------------------------------------------
 #p m062x/6-311g** em=gd3 geom=allcheck guess=read
 -------------------------------------------------
 1/29=7,38=1,172=1/1;
 2/12=2,40=1/2;
 3/5=4,6=6,7=101,11=2,14=-4,25=1,30=1,74=-55,116=-2,124=31/1,2,3;
 4/5=1/1;
 5/5=2,38=6/2;
 6/7=2,8=2,9=2,10=2,28=1/1;
 99/5=1,9=1/99;
 Leave Link    1 at Tue Jun  2 00:04:45 2020, MaxMem=   805306368 cpu:               0.3 elap:               0.1
 (Enter /home/qslin/g16/l101.exe)
 Structure from the checkpoint file:  "EtOH-P2.chk"
 ---------------------------------------
 optimize transition state and frequency
 ---------------------------------------
 Charge =  0 Multiplicity = 1
 Redundant internal coordinates found in file.  (old form).
 O,0,0.,0.,-0.140491348
 H,0,0.,-0.7615563752,0.458225059
 H,0,0.,0.7615563752,0.458225059
 Recover connectivity data from disk.
 ITRead=  0  0  0
 MicOpt= -1 -1 -1
                           ----------------------------
                           !    Current Parameters    !
                           ! (Angstroms and Degrees)  !
 --------------------------                            --------------------------
 ! Name  Definition              Value                                          !
 --------------------------------------------------------------------------------
 ! R1    R(1,2)                  0.9687                                         !
 ! R2    R(1,3)                  0.9687                                         !
 ! A1    A(2,1,3)              103.6529                                         !
 --------------------------------------------------------------------------------
 NAtoms=      3 NQM=        3 NQMF=       0 NMMI=      0 NMMIF=      0
                NMic=       0 NMicF=      0.
                    Isotopes and Nuclear Properties:
 (Nuclear quadrupole moments (NQMom) in fm**2, nuclear magnetic moments (NMagM)
  in nuclear magnetons)

  Atom         1           2           3
 IAtWgt=          16           1           1
 AtmWgt=  15.9949146   1.0078250   1.0078250
 NucSpn=           0           1           1
 AtZEff=   5.6000000   1.0000000   1.0000000
 NQMom=    0.0000000   0.0000000   0.0000000
 NMagM=    0.0000000   2.7928460   2.7928460
 AtZNuc=   8.0000000   1.0000000   1.0000000
 Leave Link  101 at Tue Jun  2 00:04:46 2020, MaxMem=   805306368 cpu:               2.4 elap:               0.6
 (Enter /home/qslin/g16/l202.exe)
                          Input orientation:                          
 ---------------------------------------------------------------------
 Center     Atomic      Atomic             Coordinates (Angstroms)
 Number     Number       Type             X           Y           Z
 ---------------------------------------------------------------------
      1          8           0        0.000000   -0.000000   -0.140491
      2          1           0        0.000000   -0.761556    0.458225
      3          1           0       -0.000000    0.761556    0.458225
 ---------------------------------------------------------------------
                    Distance matrix (angstroms):
                    1          2          3
     1  O    0.000000
     2  H    0.968726   0.000000
     3  H    0.968726   1.523113   0.000000
 Stoichiometry    H2O
 Framework group  C2V[C2(O),SGV(H2)]
 Deg. of freedom     2
 Full point group                 C2V     NOp   4
 RotChk:  IX=0 Diff= 4.86D-16
 Largest Abelian subgroup         C2V     NOp   4
 Largest concise Abelian subgroup C2      NOp   2
                         Standard orientation:                         
 ---------------------------------------------------------------------
 Center     Atomic      Atomic             Coordinates (Angstroms)
 Number     Number       Type             X           Y           Z
 ---------------------------------------------------------------------
      1          8           0        0.000000   -0.000000    0.119743
      2          1           0       -0.000000    0.761556   -0.478973
      3          1           0       -0.000000   -0.761556   -0.478973
 ---------------------------------------------------------------------
 Rotational constants (GHZ):         787.5989801         432.3126510         279.1095636
 Leave Link  202 at Tue Jun  2 00:04:46 2020, MaxMem=   805306368 cpu:               0.0 elap:               0.0
 (Enter /home/qslin/g16/l301.exe)
 Standard basis: 6-311G(d,p) (5D, 7F)
 Ernie: Thresh=  0.10000D-02 Tol=  0.10000D-05 Strict=F.
 There are    15 symmetry adapted cartesian basis functions of A1  symmetry.
 There are     2 symmetry adapted cartesian basis functions of A2  symmetry.
 There are     5 symmetry adapted cartesian basis functions of B1  symmetry.
 There are     9 symmetry adapted cartesian basis functions of B2  symmetry.
 There are    14 symmetry adapted basis functions of A1  symmetry.
 There are     2 symmetry adapted basis functions of A2  symmetry.
 There are     5 symmetry adapted basis functions of B1  symmetry.
 There are     9 symmetry adapted basis functions of B2  symmetry.
    30 basis functions,    48 primitive gaussians,    31 cartesian basis functions
     5 alpha electrons        5 beta electrons
       nuclear repulsion energy         9.0876098991 Hartrees.
 IExCor= 4336 DFT=T Ex+Corr=M062X ExCW=0 ScaHFX=  0.540000
 ScaDFX=  1.000000  1.000000  1.000000  1.000000 ScalE2=  1.000000  1.000000
 IRadAn=      5 IRanWt=     -1 IRanGd=            0 ICorTp=0 IEmpDi=131
 NAtoms=    3 NActive=    3 NUniq=    2 SFac= 2.25D+00 NAtFMM=   60 NAOKFM=F Big=F
 Integral buffers will be    131072 words long.
 Raffenetti 2 integral format.
 Two-electron integral symmetry is turned on.
 R6Disp:  Grimme-D3 Dispersion energy=       -0.0000000076 Hartrees.
 Nuclear repulsion after empirical dispersion term =        9.0876098915 Hartrees.
 Leave Link  301 at Tue Jun  2 00:04:46 2020, MaxMem=   805306368 cpu:               0.2 elap:               0.0
 (Enter /home/qslin/g16/l302.exe)
 NPDir=0 NMtPBC=     1 NCelOv=     1 NCel=       1 NClECP=     1 NCelD=      1
         NCelK=      1 NCelE2=     1 NClLst=     1 CellRange=     0.0.
 One-electron integrals computed using PRISM.
 One-electron integral symmetry used in STVInt
 NBasis=    30 RedAO= T EigKep=  1.86D-02  NBF=    14     2     5     9
 NBsUse=    30 1.00D-06 EigRej= -1.00D+00 NBFU=    14     2     5     9
 Precomputing XC quadrature grid using
 IXCGrd= 4 IRadAn=           5 IRanWt=          -1 IRanGd=           0 AccXCQ= 0.00D+00.
 Generated NRdTot=       0 NPtTot=           0 NUsed=           0 NTot=          32
 NSgBfM=    31    31    31    31    31 MxSgAt=     3 MxSgA2=     3.
 Leave Link  302 at Tue Jun  2 00:04:46 2020, MaxMem=   805306368 cpu:               0.4 elap:               0.1
 (Enter /home/qslin/g16/l303.exe)
 DipDrv:  MaxL=1.
 Leave Link  303 at Tue Jun  2 00:04:46 2020, MaxMem=   805306368 cpu:               0.1 elap:               0.0
 (Enter /home/qslin/g16/l401.exe)
 Initial guess from the checkpoint file:  "EtOH-P2.chk"
 B after Tr=    -0.000000    0.000000   -0.000000
         Rot=    1.000000   -0.000000   -0.000000   -0.000000 Ang=   0.00 deg.
 Guess basis will be translated and rotated to current coordinates.
 JPrj=2 DoOrth=T DoCkMO=T.
 Initial guess orbital symmetries:
       Occupied  (A1) (A1) (B2) (A1) (B1)
       Virtual   (A1) (A1) (A1) (A1) (A1) (A1) (A1) (A1) (A1) (A1)
                 (A1) (A2) (A2) (B1) (B1) (B1) (B1) (B2) (B2) (B2)
                 (B2) (B2) (B2) (B2) (B2)
 The electronic state of the initial guess is 1-A1.
 Leave Link  401 at Tue Jun  2 00:04:46 2020, MaxMem=   805306368 cpu:               0.2 elap:               0.0
 (Enter /home/qslin/g16/l502.exe)
 Keep R1 ints in memory in symmetry-blocked form, NReq=3563369.
 FoFCou: FMM=F IPFlag=           0 FMFlag=           0 FMFlg1=           0
         NFxFlg=           0 DoJE=F BraDBF=F KetDBF=F FulRan=T
         wScrn=  0.000000 ICntrl=       600 IOpCl=  0 I1Cent=           0 NGrid=           0
         NMat0=    1 NMatS0=    465 NMatT0=    0 NMatD0=    1 NMtDS0=    0 NMtDT0=    0
 Petite list used in FoFCou.
 Closed shell SCF:
 Using DIIS extrapolation, IDIIS=  1040.
 NGot=   805306368 LenX=   805271627 LenY=   805270225
 Requested convergence on RMS density matrix=1.00D-08 within 128 cycles.
 Requested convergence on MAX density matrix=1.00D-06.
 Requested convergence on             energy=1.00D-06.
 No special actions if energy rises.

 Cycle   1  Pass 1  IDiag  1:
 E= -76.3962826710073    
 DIIS: error= 3.87D-02 at cycle   1 NSaved=   1.
 NSaved= 1 IEnMin= 1 EnMin= -76.3962826710073     IErMin= 1 ErrMin= 3.87D-02
 ErrMax= 3.87D-02  0.00D+00 EMaxC= 1.00D-01 BMatC= 3.61D-02 BMatP= 3.61D-02
 IDIUse=3 WtCom= 6.13D-01 WtEn= 3.87D-01
 Coeff-Com:  0.100D+01
 Coeff-En:   0.100D+01
 Coeff:      0.100D+01
 Gap=     0.860 Goal=   None    Shift=    0.000
 GapD=    0.860 DampG=2.000 DampE=0.500 DampFc=1.0000 IDamp=-1.
 RMSDP=3.20D-03 MaxDP=2.97D-02              OVMax= 3.04D-02

 Cycle   2  Pass 1  IDiag  1:
 E= -76.4119205752536     Delta-E=       -0.015637904246 Rises=F Damp=F
 DIIS: error= 3.85D-03 at cycle   2 NSaved=   2.
 NSaved= 2 IEnMin= 2 EnMin= -76.4119205752536     IErMin= 2 ErrMin= 3.85D-03
 ErrMax= 3.85D-03  0.00D+00 EMaxC= 1.00D-01 BMatC= 2.34D-04 BMatP= 3.61D-02
 IDIUse=3 WtCom= 9.61D-01 WtEn= 3.85D-02
 Coeff-Com: -0.334D-01 0.103D+01
 Coeff-En:   0.000D+00 0.100D+01
 Coeff:     -0.322D-01 0.103D+01
 Gap=     0.456 Goal=   None    Shift=    0.000
 RMSDP=5.86D-04 MaxDP=7.58D-03 DE=-1.56D-02 OVMax= 8.17D-03

 Cycle   3  Pass 1  IDiag  1:
 E= -76.4120626925486     Delta-E=       -0.000142117295 Rises=F Damp=F
 DIIS: error= 2.53D-03 at cycle   3 NSaved=   3.
 NSaved= 3 IEnMin= 3 EnMin= -76.4120626925486     IErMin= 3 ErrMin= 2.53D-03
 ErrMax= 2.53D-03  0.00D+00 EMaxC= 1.00D-01 BMatC= 1.61D-04 BMatP= 2.34D-04
 IDIUse=3 WtCom= 9.75D-01 WtEn= 2.53D-02
 Coeff-Com: -0.190D-01 0.487D+00 0.532D+00
 Coeff-En:   0.000D+00 0.369D-01 0.963D+00
 Coeff:     -0.185D-01 0.476D+00 0.543D+00
 Gap=     0.450 Goal=   None    Shift=    0.000
 RMSDP=2.05D-04 MaxDP=2.60D-03 DE=-1.42D-04 OVMax= 2.84D-03

 Cycle   4  Pass 1  IDiag  1:
 E= -76.4121612598551     Delta-E=       -0.000098567306 Rises=F Damp=F
 DIIS: error= 4.48D-04 at cycle   4 NSaved=   4.
 NSaved= 4 IEnMin= 4 EnMin= -76.4121612598551     IErMin= 4 ErrMin= 4.48D-04
 ErrMax= 4.48D-04  0.00D+00 EMaxC= 1.00D-01 BMatC= 3.23D-06 BMatP= 1.61D-04
 IDIUse=3 WtCom= 9.96D-01 WtEn= 4.48D-03
 Coeff-Com: -0.111D-02-0.301D-01 0.955D-01 0.936D+00
 Coeff-En:   0.000D+00 0.000D+00 0.000D+00 0.100D+01
 Coeff:     -0.111D-02-0.300D-01 0.951D-01 0.936D+00
 Gap=     0.450 Goal=   None    Shift=    0.000
 RMSDP=5.43D-05 MaxDP=7.23D-04 DE=-9.86D-05 OVMax= 8.30D-04

 Cycle   5  Pass 1  IDiag  1:
 E= -76.4121640581967     Delta-E=       -0.000002798342 Rises=F Damp=F
 DIIS: error= 3.39D-05 at cycle   5 NSaved=   5.
 NSaved= 5 IEnMin= 5 EnMin= -76.4121640581967     IErMin= 5 ErrMin= 3.39D-05
 ErrMax= 3.39D-05  0.00D+00 EMaxC= 1.00D-01 BMatC= 2.12D-08 BMatP= 3.23D-06
 IDIUse=1 WtCom= 1.00D+00 WtEn= 0.00D+00
 Coeff-Com:  0.179D-03 0.745D-03-0.187D-01-0.119D+00 0.114D+01
 Coeff:      0.179D-03 0.745D-03-0.187D-01-0.119D+00 0.114D+01
 Gap=     0.450 Goal=   None    Shift=    0.000
 RMSDP=9.96D-06 MaxDP=1.06D-04 DE=-2.80D-06 OVMax= 1.53D-04

 Cycle   6  Pass 1  IDiag  1:
 E= -76.4121641043491     Delta-E=       -0.000000046152 Rises=F Damp=F
 DIIS: error= 8.51D-06 at cycle   6 NSaved=   6.
 NSaved= 6 IEnMin= 6 EnMin= -76.4121641043491     IErMin= 6 ErrMin= 8.51D-06
 ErrMax= 8.51D-06  0.00D+00 EMaxC= 1.00D-01 BMatC= 9.93D-10 BMatP= 2.12D-08
 IDIUse=1 WtCom= 1.00D+00 WtEn= 0.00D+00
 Coeff-Com:  0.366D-04 0.607D-03-0.441D-02-0.263D-01 0.771D-01 0.953D+00
 Coeff:      0.366D-04 0.607D-03-0.441D-02-0.263D-01 0.771D-01 0.953D+00
 Gap=     0.450 Goal=   None    Shift=    0.000
 RMSDP=1.17D-06 MaxDP=8.85D-06 DE=-4.62D-08 OVMax= 2.38D-05

 Cycle   7  Pass 1  IDiag  1:
 E= -76.4121641057863     Delta-E=       -0.000000001437 Rises=F Damp=F
 DIIS: error= 1.32D-06 at cycle   7 NSaved=   7.
 NSaved= 7 IEnMin= 7 EnMin= -76.4121641057863     IErMin= 7 ErrMin= 1.32D-06
 ErrMax= 1.32D-06  0.00D+00 EMaxC= 1.00D-01 BMatC= 3.41D-11 BMatP= 9.93D-10
 IDIUse=1 WtCom= 1.00D+00 WtEn= 0.00D+00
 Coeff-Com: -0.133D-04 0.612D-04 0.822D-03 0.575D-02-0.533D-01-0.378D-01
 Coeff-Com:  0.108D+01
 Coeff:     -0.133D-04 0.612D-04 0.822D-03 0.575D-02-0.533D-01-0.378D-01
 Coeff:      0.108D+01
 Gap=     0.450 Goal=   None    Shift=    0.000
 RMSDP=3.15D-07 MaxDP=2.33D-06 DE=-1.44D-09 OVMax= 6.63D-06

 Cycle   8  Pass 1  IDiag  1:
 E= -76.4121641058586     Delta-E=       -0.000000000072 Rises=F Damp=F
 DIIS: error= 1.25D-07 at cycle   8 NSaved=   8.
 NSaved= 8 IEnMin= 8 EnMin= -76.4121641058586     IErMin= 8 ErrMin= 1.25D-07
 ErrMax= 1.25D-07  0.00D+00 EMaxC= 1.00D-01 BMatC= 3.72D-13 BMatP= 3.41D-11
 IDIUse=1 WtCom= 1.00D+00 WtEn= 0.00D+00
 Coeff-Com:  0.125D-05-0.190D-04-0.376D-04-0.476D-03 0.662D-02-0.630D-02
 Coeff-Com: -0.175D+00 0.118D+01
 Coeff:      0.125D-05-0.190D-04-0.376D-04-0.476D-03 0.662D-02-0.630D-02
 Coeff:     -0.175D+00 0.118D+01
 Gap=     0.450 Goal=   None    Shift=    0.000
 RMSDP=3.59D-08 MaxDP=2.08D-07 DE=-7.23D-11 OVMax= 8.33D-07

 Cycle   9  Pass 1  IDiag  1:
 E= -76.4121641058595     Delta-E=       -0.000000000001 Rises=F Damp=F
 DIIS: error= 1.87D-08 at cycle   9 NSaved=   9.
 NSaved= 9 IEnMin= 9 EnMin= -76.4121641058595     IErMin= 9 ErrMin= 1.87D-08
 ErrMax= 1.87D-08  0.00D+00 EMaxC= 1.00D-01 BMatC= 4.02D-15 BMatP= 3.72D-13
 IDIUse=1 WtCom= 1.00D+00 WtEn= 0.00D+00
 Coeff-Com: -0.865D-07 0.205D-05-0.305D-05 0.188D-04-0.425D-03 0.209D-02
 Coeff-Com:  0.882D-02-0.153D+00 0.114D+01
 Coeff:     -0.865D-07 0.205D-05-0.305D-05 0.188D-04-0.425D-03 0.209D-02
 Coeff:      0.882D-02-0.153D+00 0.114D+01
 Gap=     0.450 Goal=   None    Shift=    0.000
 RMSDP=3.54D-09 MaxDP=3.02D-08 DE=-8.38D-13 OVMax= 5.78D-08

 SCF Done:  E(RM062X) =  -76.4121641059     A.U. after    9 cycles
            NFock=  9  Conv=0.35D-08     -V/T= 2.0019
 KE= 7.626704134847D+01 PE=-1.992530233268D+02 EE= 3.748620798106D+01
 Leave Link  502 at Tue Jun  2 00:04:47 2020, MaxMem=   805306368 cpu:               2.4 elap:               0.6
 (Enter /home/qslin/g16/l601.exe)
 Copying SCF densities to generalized density rwf, IOpCl= 0 IROHF=0.

 **********************************************************************

            Population analysis using the SCF density.

 **********************************************************************

 Orbital symmetries:
       Occupied  (A1) (A1) (B2) (A1) (B1)
       Virtual   (A1) (B2) (B2) (A1) (A1) (B1) (B2) (A1) (A1) (A2)
                 (B1) (B2) (B2) (A1) (A1) (B2) (B1) (A2) (A1) (A1)
                 (B2) (B1) (A1) (B2) (A1)
 The electronic state is 1-A1.
 Alpha  occ. eigenvalues --  -19.60170  -1.11724  -0.59086  -0.45758  -0.38368
 Alpha virt. eigenvalues --    0.06659   0.13692   0.42594   0.47069   0.83042
 Alpha virt. eigenvalues --    0.83603   0.92654   1.12821   1.29179   1.31890
 Alpha virt. eigenvalues --    1.50660   1.70177   1.97382   2.10134   2.33525
 Alpha virt. eigenvalues --    2.51792   3.17887   3.21884   3.37751   3.64895
 Alpha virt. eigenvalues --    3.87392   4.89689   5.30011   5.68507  49.95354
          Condensed to atoms (all electrons):
               1          2          3
     1  O    7.882235   0.312026   0.312026
     2  H    0.312026   0.468802  -0.033972
     3  H    0.312026  -0.033972   0.468802
 Mulliken charges:
               1
     1  O   -0.506287
     2  H    0.253144
     3  H    0.253144
 Sum of Mulliken charges =  -0.00000
 Mulliken charges with hydrogens summed into heavy atoms:
               1
     1  O   -0.000000
 Electronic spatial extent (au):  <R**2>=             19.2473
 Charge=             -0.0000 electrons
 Dipole moment (field-independent basis, Debye):
    X=             -0.0000    Y=             -0.0000    Z=             -2.1215  Tot=              2.1215
 Quadrupole moment (field-independent basis, Debye-Ang):
   XX=             -7.2295   YY=             -4.2820   ZZ=             -6.0505
   XY=              0.0000   XZ=              0.0000   YZ=             -0.0000
 Traceless Quadrupole moment (field-independent basis, Debye-Ang):
   XX=             -1.3755   YY=              1.5720   ZZ=             -0.1965
   XY=              0.0000   XZ=              0.0000   YZ=             -0.0000
 Octapole moment (field-independent basis, Debye-Ang**2):
  XXX=              0.0000  YYY=              0.0000  ZZZ=             -1.2514  XYY=             -0.0000
  XXY=              0.0000  XXZ=             -0.3240  XZZ=              0.0000  YZZ=             -0.0000
  YYZ=             -1.2938  XYZ=             -0.0000
 Hexadecapole moment (field-independent basis, Debye-Ang**3):
 XXXX=             -5.3199 YYYY=             -6.0802 ZZZZ=             -6.4052 XXXY=             -0.0000
 XXXZ=             -0.0000 YYYX=             -0.0000 YYYZ=              0.0000 ZZZX=             -0.0000
 ZZZY=              0.0000 XXYY=             -2.1863 XXZZ=             -2.0125 YYZZ=             -1.7247
 XXYZ=             -0.0000 YYXZ=              0.0000 ZZXY=             -0.0000
 N-N= 9.087609891454D+00 E-N=-1.992530232286D+02  KE= 7.626704134847D+01
 Symmetry A1   KE= 6.806760377589D+01
 Symmetry A2   KE= 5.741509618376D-35
 Symmetry B1   KE= 4.625112157850D+00
 Symmetry B2   KE= 3.574325414729D+00
 No NMR shielding tensors so no spin-rotation constants.
 Leave Link  601 at Tue Jun  2 00:04:47 2020, MaxMem=   805306368 cpu:               0.3 elap:               0.1
 (Enter /home/qslin/g16/l9999.exe)
 1\1\GINC-QSLIN\SP\RM062X\6-311G(d,p)\H2O1\QSLIN\02-Jun-2020\0\\#p m062
 x/6-311g** em=gd3 geom=allcheck guess=read\\optimize transition state 
 and frequency\\0,1\O,0,0.,0.,-0.140491348\H,0,0.,-0.7615563752,0.45822
 5059\H,0,0.,0.7615563752,0.458225059\\Version=ES64L-G16RevA.03\State=1
 -A1\HF=-76.4121641\RMSD=3.543e-09\Dipole=0.,0.,0.8346768\Quadrupole=-1
 .022681,1.1687524,-0.1460715,0.,0.,0.\PG=C02V [C2(O1),SGV(H2)]\\@


 I MET A TRAVELLER FROM AN ANTIQUE LAND
 WHO SAID... TWO VAST AND TRUNKLESS LEGS OF STONE
 STAND IN THE DESERT..... NEAR THEM,  ON THE SAND,
 HALF SUNK,  A SHATTERED VISAGE LIES,  WHOSE FROWN,
 AND WRINKLED LIP,  AND SNEER OF COLD COMMAND
 TELL THAT ITS SCULPTOR WELL THOSE PASSIONS READ
 WHICH YET SURVIVE,  STAMPED ON THESE LIFELESS THINGS
 THE HAND THAT MOCKED THEM,  AND THE HEART THAT FED-
 AND ON THE PEDESTAL THESE WORDS APPEAR 
 MY NAME IS OZYMANDIAS, KING OF KINGS--   
 LOOK ON MY WORKS YE MIGHTY AND DESPAIR. 
 NOTHING BESIDE REMAINS,  ROUND THE DECAY 
 OF THAT COLOSSAL WRECK,  BOUNDLESS AND BARE
 THE LONE AND LEVEL SANDS STRETCH FAR AWAY.
                                    SHELLEY
 Job cpu time:       0 days  0 hours  0 minutes  6.7 seconds.
 Elapsed time:       0 days  0 hours  0 minutes  1.7 seconds.
 File lengths (MBytes):  RWF=      6 Int=      0 D2E=      0 Chk=      1 Scr=      1
 Normal termination of Gaussian 16 at Tue Jun  2 00:04:47 2020.
