 Entering Gaussian System, Link 0=g16
 Input=DA-R.gjf
 Output=DA-R.log
 Initial command:
 /project/qslin/software/g16/l1.exe "/workfs/qslin/tmp/Gau-26297.inp" -scrdir="/workfs/qslin/tmp/"
 Default is to use a total of  16 processors:
                               16 via shared-memory
                                1 via Linda
 Entering Link 1 = /project/qslin/software/g16/l1.exe PID=     26298.
  
 Copyright (c) 1988,1990,1992,1993,1995,1998,2003,2009,2016,
            Gaussian, Inc.  All Rights Reserved.
  
 This is part of the Gaussian(R) 16 program.  It is based on
 the Gaussian(R) 09 system (copyright 2009, Gaussian, Inc.),
 the Gaussian(R) 03 system (copyright 2003, Gaussian, Inc.),
 the Gaussian(R) 98 system (copyright 1998, Gaussian, Inc.),
 the Gaussian(R) 94 system (copyright 1995, Gaussian, Inc.),
 the Gaussian 92(TM) system (copyright 1992, Gaussian, Inc.),
 the Gaussian 90(TM) system (copyright 1990, Gaussian, Inc.),
 the Gaussian 88(TM) system (copyright 1988, Gaussian, Inc.),
 the Gaussian 86(TM) system (copyright 1986, Carnegie Mellon
 University), and the Gaussian 82(TM) system (copyright 1983,
 Carnegie Mellon University). Gaussian is a federally registered
 trademark of Gaussian, Inc.
  
 This software contains proprietary and confidential information,
 including trade secrets, belonging to Gaussian, Inc.
  
 This software is provided under written license and may be
 used, copied, transmitted, or stored only in accord with that
 written license.
  
 The following legend is applicable only to US Government
 contracts under FAR:
  
                    RESTRICTED RIGHTS LEGEND
  
 Use, reproduction and disclosure by the US Government is
 subject to restrictions as set forth in subparagraphs (a)
 and (c) of the Commercial Computer Software - Restricted
 Rights clause in FAR 52.227-19.
  
 Gaussian, Inc.
 340 Quinnipiac St., Bldg. 40, Wallingford CT 06492
  
  
 ---------------------------------------------------------------
 Warning -- This program may not be used in any manner that
 competes with the business of Gaussian, Inc. or will provide
 assistance to any competitor of Gaussian, Inc.  The licensee
 of this program is prohibited from giving any competitor of
 Gaussian, Inc. access to this program.  By using this program,
 the user acknowledges that Gaussian, Inc. is engaged in the
 business of creating and licensing software in the field of
 computational chemistry and represents and warrants to the
 licensee that it is not a competitor of Gaussian, Inc. and that
 it will not use this program in any manner prohibited above.
 ---------------------------------------------------------------
  

 Cite this work as:
 Gaussian 16, Revision A.03,
 M. J. Frisch, G. W. Trucks, H. B. Schlegel, G. E. Scuseria, 
 M. A. Robb, J. R. Cheeseman, G. Scalmani, V. Barone, 
 G. A. Petersson, H. Nakatsuji, X. Li, M. Caricato, A. V. Marenich, 
 J. Bloino, B. G. Janesko, R. Gomperts, B. Mennucci, H. P. Hratchian, 
 J. V. Ortiz, A. F. Izmaylov, J. L. Sonnenberg, D. Williams-Young, 
 F. Ding, F. Lipparini, F. Egidi, J. Goings, B. Peng, A. Petrone, 
 T. Henderson, D. Ranasinghe, V. G. Zakrzewski, J. Gao, N. Rega, 
 G. Zheng, W. Liang, M. Hada, M. Ehara, K. Toyota, R. Fukuda, 
 J. Hasegawa, M. Ishida, T. Nakajima, Y. Honda, O. Kitao, H. Nakai, 
 T. Vreven, K. Throssell, J. A. Montgomery, Jr., J. E. Peralta, 
 F. Ogliaro, M. J. Bearpark, J. J. Heyd, E. N. Brothers, K. N. Kudin, 
 V. N. Staroverov, T. A. Keith, R. Kobayashi, J. Normand, 
 K. Raghavachari, A. P. Rendell, J. C. Burant, S. S. Iyengar, 
 J. Tomasi, M. Cossi, J. M. Millam, M. Klene, C. Adamo, R. Cammi, 
 J. W. Ochterski, R. L. Martin, K. Morokuma, O. Farkas, 
 J. B. Foresman, and D. J. Fox, Gaussian, Inc., Wallingford CT, 2016.
 
 ******************************************
 Gaussian 16:  ES64L-G16RevA.03 25-Dec-2016
                 1-Jun-2020 
 ******************************************
 %nproc=16
 Will use up to   16 processors via shared memory.
 %mem=96GB
 %chk=DA-R.chk
 -------------------------------
 #p BMK/6-31+G(2df,p) Opt=calcfc
 -------------------------------
 1/10=4,18=20,19=15,26=3,38=1/1,3;
 2/9=110,12=2,17=6,18=5,40=1/2;
 3/5=1,6=6,7=114,11=2,25=1,30=1,71=2,74=-34,140=1/1,2,3;
 4//1;
 5/5=2,38=5/2;
 8/6=4,10=90,11=11/1;
 11/6=1,8=1,9=11,15=111,16=1/1,2,10;
 10/6=1,13=1/2;
 6/7=2,8=2,9=2,10=2,28=1/1;
 7/10=1,18=20,25=1/1,2,3,16;
 1/10=4,18=20,19=15,26=3/3(2);
 2/9=110/2;
 99//99;
 2/9=110/2;
 3/5=1,6=6,7=114,11=2,25=1,30=1,71=1,74=-34/1,2,3;
 4/5=5,16=3,69=1/1;
 5/5=2,38=5/2;
 7//1,2,3,16;
 1/18=20,19=15,26=3/3(-5);
 2/9=110/2;
 6/7=2,8=2,9=2,10=2,19=2,28=1/1;
 99/9=1/99;
 Leave Link    1 at Mon Jun  1 23:40:56 2020, MaxMem= 12884901888 cpu:              11.4 elap:               1.3
 (Enter /project/qslin/software/g16/l101.exe)
 ----------------------------------------
 Hydrogen molecule G4(MP2)-6X calculation
 ----------------------------------------
 Symbolic Z-matrix:
 Charge =  0 Multiplicity = 1
 C                    -0.06434  -1.46111   0.539 
 C                     0.07607  -0.76623  -0.61599 
 H                    -0.28092  -0.94498   1.45092 
 H                     0.04137  -2.52587   0.539 
 H                     0.29266  -1.28236  -1.52792 
 C                    -0.07607   0.76623  -0.61599 
 C                     0.06434   1.46111   0.539 
 H                    -0.29266   1.28236  -1.52792 
 H                    -0.04137   2.52587   0.539 
 H                     0.28092   0.94498   1.45092 
 
 ITRead=  0  0  0  0  0  0  0  0  0  0
 MicOpt= -1 -1 -1 -1 -1 -1 -1 -1 -1 -1
 NAtoms=     10 NQM=       10 NQMF=       0 NMMI=      0 NMMIF=      0
                NMic=       0 NMicF=      0.
                    Isotopes and Nuclear Properties:
 (Nuclear quadrupole moments (NQMom) in fm**2, nuclear magnetic moments (NMagM)
  in nuclear magnetons)

  Atom         1           2           3           4           5           6           7           8           9          10
 IAtWgt=          12          12           1           1           1          12          12           1           1           1
 AtmWgt=  12.0000000  12.0000000   1.0078250   1.0078250   1.0078250  12.0000000  12.0000000   1.0078250   1.0078250   1.0078250
 NucSpn=           0           0           1           1           1           0           0           1           1           1
 AtZEff=  -0.0000000  -0.0000000  -0.0000000  -0.0000000  -0.0000000  -0.0000000  -0.0000000  -0.0000000  -0.0000000  -0.0000000
 NQMom=    0.0000000   0.0000000   0.0000000   0.0000000   0.0000000   0.0000000   0.0000000   0.0000000   0.0000000   0.0000000
 NMagM=    0.0000000   0.0000000   2.7928460   2.7928460   2.7928460   0.0000000   0.0000000   2.7928460   2.7928460   2.7928460
 AtZNuc=   6.0000000   6.0000000   1.0000000   1.0000000   1.0000000   6.0000000   6.0000000   1.0000000   1.0000000   1.0000000
 Leave Link  101 at Mon Jun  1 23:40:57 2020, MaxMem= 12884901888 cpu:               7.8 elap:               0.7
 (Enter /project/qslin/software/g16/l103.exe)

 GradGradGradGradGradGradGradGradGradGradGradGradGradGradGradGradGradGrad
 Berny optimization.
 Initialization pass.
                           ----------------------------
                           !    Initial Parameters    !
                           ! (Angstroms and Degrees)  !
 --------------------------                            --------------------------
 ! Name  Definition              Value          Derivative Info.                !
 --------------------------------------------------------------------------------
 ! R1    R(1,2)                  1.3552         calculate D2E/DX2 analytically  !
 ! R2    R(1,3)                  1.07           calculate D2E/DX2 analytically  !
 ! R3    R(1,4)                  1.07           calculate D2E/DX2 analytically  !
 ! R4    R(2,5)                  1.07           calculate D2E/DX2 analytically  !
 ! R5    R(2,6)                  1.54           calculate D2E/DX2 analytically  !
 ! R6    R(6,7)                  1.3552         calculate D2E/DX2 analytically  !
 ! R7    R(6,8)                  1.07           calculate D2E/DX2 analytically  !
 ! R8    R(7,9)                  1.07           calculate D2E/DX2 analytically  !
 ! R9    R(7,10)                 1.07           calculate D2E/DX2 analytically  !
 ! A1    A(2,1,3)              120.0            calculate D2E/DX2 analytically  !
 ! A2    A(2,1,4)              120.0            calculate D2E/DX2 analytically  !
 ! A3    A(3,1,4)              120.0            calculate D2E/DX2 analytically  !
 ! A4    A(1,2,5)              120.0            calculate D2E/DX2 analytically  !
 ! A5    A(1,2,6)              120.0            calculate D2E/DX2 analytically  !
 ! A6    A(5,2,6)              120.0            calculate D2E/DX2 analytically  !
 ! A7    A(2,6,7)              120.0            calculate D2E/DX2 analytically  !
 ! A8    A(2,6,8)              120.0            calculate D2E/DX2 analytically  !
 ! A9    A(7,6,8)              120.0            calculate D2E/DX2 analytically  !
 ! A10   A(6,7,9)              120.0            calculate D2E/DX2 analytically  !
 ! A11   A(6,7,10)             120.0            calculate D2E/DX2 analytically  !
 ! A12   A(9,7,10)             120.0            calculate D2E/DX2 analytically  !
 ! D1    D(3,1,2,5)            180.0            calculate D2E/DX2 analytically  !
 ! D2    D(3,1,2,6)              0.0            calculate D2E/DX2 analytically  !
 ! D3    D(4,1,2,5)              0.0            calculate D2E/DX2 analytically  !
 ! D4    D(4,1,2,6)            180.0            calculate D2E/DX2 analytically  !
 ! D5    D(1,2,6,7)             20.4545         calculate D2E/DX2 analytically  !
 ! D6    D(1,2,6,8)           -159.5455         calculate D2E/DX2 analytically  !
 ! D7    D(5,2,6,7)           -159.5455         calculate D2E/DX2 analytically  !
 ! D8    D(5,2,6,8)             20.4545         calculate D2E/DX2 analytically  !
 ! D9    D(2,6,7,9)            180.0            calculate D2E/DX2 analytically  !
 ! D10   D(2,6,7,10)             0.0            calculate D2E/DX2 analytically  !
 ! D11   D(8,6,7,9)              0.0            calculate D2E/DX2 analytically  !
 ! D12   D(8,6,7,10)           180.0            calculate D2E/DX2 analytically  !
 --------------------------------------------------------------------------------
 Trust Radius=3.00D-01 FncErr=1.00D-07 GrdErr=1.00D-06 EigMax=2.50D+02 EigMin=1.00D-04
 Number of steps in this run=     43 maximum allowed number of steps=    100.
 GradGradGradGradGradGradGradGradGradGradGradGradGradGradGradGradGradGrad

 Leave Link  103 at Mon Jun  1 23:40:59 2020, MaxMem= 12884901888 cpu:               3.7 elap:               0.5
 (Enter /project/qslin/software/g16/l202.exe)
                          Input orientation:                          
 ---------------------------------------------------------------------
 Center     Atomic      Atomic             Coordinates (Angstroms)
 Number     Number       Type             X           Y           Z
 ---------------------------------------------------------------------
      1          6           0       -0.064343   -1.461105    0.538995
      2          6           0        0.076075   -0.766233   -0.615995
      3          1           0       -0.280924   -0.944978    1.450919
      4          1           0        0.041372   -2.525870    0.538995
      5          1           0        0.292656   -1.282360   -1.527919
      6          6           0       -0.076075    0.766233   -0.615995
      7          6           0        0.064343    1.461105    0.538995
      8          1           0       -0.292656    1.282360   -1.527919
      9          1           0       -0.041372    2.525870    0.538995
     10          1           0        0.280924    0.944978    1.450919
 ---------------------------------------------------------------------
                    Distance matrix (angstroms):
                    1          2          3          4          5
     1  C    0.000000
     2  C    1.355200   0.000000
     3  H    1.070000   2.105120   0.000000
     4  H    1.070000   2.105120   1.853294   0.000000
     5  H    2.105120   1.070000   3.052261   2.425200   0.000000
     6  C    2.509019   1.540000   2.691159   3.490808   2.272510
     7  C    2.925043   2.509019   2.596161   3.987042   3.442508
     8  H    3.442508   2.272510   3.719496   4.345840   2.630661
     9  H    3.987042   3.490808   3.596635   5.052418   4.345840
    10  H    2.596161   2.691159   1.971702   3.596635   3.719496
                    6          7          8          9         10
     6  C    0.000000
     7  C    1.355200   0.000000
     8  H    1.070000   2.105120   0.000000
     9  H    2.105120   1.070000   2.425200   0.000000
    10  H    2.105120   1.070000   3.052261   1.853294   0.000000
 Stoichiometry    C4H6
 Framework group  C2[X(C4H6)]
 Deg. of freedom    13
 Full point group                 C2      NOp   2
 Largest Abelian subgroup         C2      NOp   2
 Largest concise Abelian subgroup C2      NOp   2
                         Standard orientation:                         
 ---------------------------------------------------------------------
 Center     Atomic      Atomic             Coordinates (Angstroms)
 Number     Number       Type             X           Y           Z
 ---------------------------------------------------------------------
      1          6           0        0.226337    1.444902   -0.538995
      2          6           0        0.226337    0.735983    0.615995
      3          1           0       -0.088183    0.981899   -1.450919
      4          1           0        0.540858    2.467632   -0.538995
      5          1           0        0.540858    1.198986    1.527919
      6          6           0       -0.226337   -0.735983    0.615995
      7          6           0       -0.226337   -1.444902   -0.538995
      8          1           0       -0.540858   -1.198986    1.527919
      9          1           0       -0.540858   -2.467632   -0.538995
     10          1           0        0.088183   -0.981899   -1.450919
 ---------------------------------------------------------------------
 Rotational constants (GHZ):          19.3118964           6.0254206           4.6407053
 Leave Link  202 at Mon Jun  1 23:41:00 2020, MaxMem= 12884901888 cpu:               1.9 elap:               0.3
 (Enter /project/qslin/software/g16/l301.exe)
 Standard basis: 6-31+G(2df,p) (6D, 7F)
 Ernie: Thresh=  0.10000D-02 Tol=  0.10000D-05 Strict=F.
 There are    85 symmetry adapted cartesian basis functions of A   symmetry.
 There are    85 symmetry adapted cartesian basis functions of B   symmetry.
 There are    79 symmetry adapted basis functions of A   symmetry.
 There are    79 symmetry adapted basis functions of B   symmetry.
   158 basis functions,   234 primitive gaussians,   170 cartesian basis functions
    15 alpha electrons       15 beta electrons
       nuclear repulsion energy       104.6440395817 Hartrees.
 IExCor= 3226 DFT=T Ex+Corr=BMK ExCW=0 ScaHFX=  0.420000
 ScaDFX=  1.000000  1.000000  1.000000  1.000000 ScalE2=  1.000000  1.000000
 IRadAn=      5 IRanWt=     -1 IRanGd=            0 ICorTp=0 IEmpDi=  4
 NAtoms=   10 NActive=   10 NUniq=    5 SFac= 4.00D+00 NAtFMM=   60 NAOKFM=F Big=F
 Integral buffers will be    131072 words long.
 Raffenetti 2 integral format.
 Two-electron integral symmetry is turned on.
 Leave Link  301 at Mon Jun  1 23:41:01 2020, MaxMem= 12884901888 cpu:               5.0 elap:               0.5
 (Enter /project/qslin/software/g16/l302.exe)
 NPDir=0 NMtPBC=     1 NCelOv=     1 NCel=       1 NClECP=     1 NCelD=      1
         NCelK=      1 NCelE2=     1 NClLst=     1 CellRange=     0.0.
 One-electron integrals computed using PRISM.
 One-electron integral symmetry used in STVInt
 NBasis=   158 RedAO= T EigKep=  5.42D-05  NBF=    79    79
 NBsUse=   158 1.00D-06 EigRej= -1.00D+00 NBFU=    79    79
 Precomputing XC quadrature grid using
 IXCGrd= 4 IRadAn=           5 IRanWt=          -1 IRanGd=           0 AccXCQ= 0.00D+00.
 Generated NRdTot=       0 NPtTot=           0 NUsed=           0 NTot=          32
 NSgBfM=   170   170   170   170   170 MxSgAt=    10 MxSgA2=    10.
 Leave Link  302 at Mon Jun  1 23:41:05 2020, MaxMem= 12884901888 cpu:               6.9 elap:               0.8
 (Enter /project/qslin/software/g16/l303.exe)
 DipDrv:  MaxL=1.
 Leave Link  303 at Mon Jun  1 23:41:06 2020, MaxMem= 12884901888 cpu:               2.3 elap:               0.6
 (Enter /project/qslin/software/g16/l401.exe)
 ExpMin= 4.38D-02 ExpMax= 3.05D+03 ExpMxC= 4.57D+02 IAcc=3 IRadAn=         5 AccDes= 0.00D+00
 Harris functional with IExCor= 1009 and IRadAn=       5 diagonalized for initial guess.
 HarFok:  IExCor= 1009 AccDes= 0.00D+00 IRadAn=         5 IDoV= 1 UseB2=F ITyADJ=14
 ICtDFT=  3500011 ScaDFX=  1.000000  1.000000  1.000000  1.000000
 FoFCou: FMM=F IPFlag=           0 FMFlag=      100000 FMFlg1=           0
         NFxFlg=           0 DoJE=T BraDBF=F KetDBF=T FulRan=T
         wScrn=  0.000000 ICntrl=       500 IOpCl=  0 I1Cent=   200000004 NGrid=           0
         NMat0=    1 NMatS0=      1 NMatT0=    0 NMatD0=    1 NMtDS0=    0 NMtDT0=    0
 Petite list used in FoFCou.
 Harris En= -155.886184714915    
 JPrj=0 DoOrth=F DoCkMO=F.
 Initial guess orbital symmetries:
       Occupied  (B) (A) (A) (B) (A) (B) (A) (B) (A) (A) (B) (B)
                 (A) (B) (A)
       Virtual   (B) (A) (A) (A) (B) (B) (B) (A) (B) (A) (A) (A)
                 (B) (B) (A) (B) (A) (A) (B) (B) (A) (B) (A) (B)
                 (A) (B) (B) (A) (B) (A) (B) (A) (B) (A) (A) (B)
                 (B) (A) (B) (B) (A) (A) (B) (A) (A) (B) (B) (A)
                 (B) (A) (B) (B) (A) (A) (B) (A) (B) (A) (B) (A)
                 (B) (A) (A) (B) (B) (A) (A) (B) (B) (B) (A) (B)
                 (A) (A) (B) (A) (B) (A) (B) (A) (A) (B) (B) (A)
                 (A) (B) (B) (A) (B) (A) (B) (A) (A) (B) (B) (A)
                 (B) (A) (B) (A) (A) (B) (A) (B) (A) (B) (A) (B)
                 (B) (B) (B) (A) (A) (A) (B) (A) (A) (B) (B) (A)
                 (B) (A) (B) (A) (B) (A) (B) (A) (A) (B) (A) (B)
                 (B) (A) (A) (B) (B) (A) (B) (A) (B) (A) (B)
 The electronic state of the initial guess is 1-A.
 Leave Link  401 at Mon Jun  1 23:41:08 2020, MaxMem= 12884901888 cpu:               8.4 elap:               0.7
 (Enter /project/qslin/software/g16/l502.exe)
 Keep R1 ints in memory in symmetry-blocked form, NReq=118375835.
 FoFCou: FMM=F IPFlag=           0 FMFlag=           0 FMFlg1=           0
         NFxFlg=           0 DoJE=F BraDBF=F KetDBF=F FulRan=T
         wScrn=  0.000000 ICntrl=       600 IOpCl=  0 I1Cent=           0 NGrid=           0
         NMat0=    1 NMatS0=  12561 NMatT0=    0 NMatD0=    1 NMtDS0=    0 NMtDT0=    0
 Petite list used in FoFCou.
 Closed shell SCF:
 Using DIIS extrapolation, IDIIS=  1040.
 NGot= 12884901888 LenX= 12845360555 LenY= 12845331214
 Requested convergence on RMS density matrix=1.00D-08 within 128 cycles.
 Requested convergence on MAX density matrix=1.00D-06.
 Requested convergence on             energy=1.00D-06.
 No special actions if energy rises.

 Cycle   1  Pass 1  IDiag  1:
 E= -155.746207812600    
 DIIS: error= 2.60D-02 at cycle   1 NSaved=   1.
 NSaved= 1 IEnMin= 1 EnMin= -155.746207812600     IErMin= 1 ErrMin= 2.60D-02
 ErrMax= 2.60D-02  0.00D+00 EMaxC= 1.00D-01 BMatC= 1.15D-01 BMatP= 1.15D-01
 IDIUse=3 WtCom= 7.40D-01 WtEn= 2.60D-01
 Coeff-Com:  0.100D+01
 Coeff-En:   0.100D+01
 Coeff:      0.100D+01
 Gap=     0.251 Goal=   None    Shift=    0.000
 GapD=    0.251 DampG=1.000 DampE=0.500 DampFc=0.5000 IDamp=-1.
 Damping current iteration by 5.00D-01
 RMSDP=4.46D-03 MaxDP=8.99D-02              OVMax= 1.66D-01

 Cycle   2  Pass 1  IDiag  1:
 E= -155.812945144330     Delta-E=       -0.066737331731 Rises=F Damp=T
 DIIS: error= 5.40D-03 at cycle   2 NSaved=   2.
 NSaved= 2 IEnMin= 2 EnMin= -155.812945144330     IErMin= 2 ErrMin= 5.40D-03
 ErrMax= 5.40D-03  0.00D+00 EMaxC= 1.00D-01 BMatC= 5.52D-03 BMatP= 1.15D-01
 IDIUse=3 WtCom= 9.46D-01 WtEn= 5.40D-02
 Coeff-Com: -0.108D+00 0.111D+01
 Coeff-En:   0.000D+00 0.100D+01
 Coeff:     -0.102D+00 0.110D+01
 Gap=     0.271 Goal=   None    Shift=    0.000
 RMSDP=1.82D-03 MaxDP=6.11D-02 DE=-6.67D-02 OVMax= 7.85D-02

 Cycle   3  Pass 1  IDiag  1:
 E= -155.873464751749     Delta-E=       -0.060519607419 Rises=F Damp=F
 DIIS: error= 1.91D-03 at cycle   3 NSaved=   3.
 NSaved= 3 IEnMin= 3 EnMin= -155.873464751749     IErMin= 3 ErrMin= 1.91D-03
 ErrMax= 1.91D-03  0.00D+00 EMaxC= 1.00D-01 BMatC= 5.31D-04 BMatP= 5.52D-03
 IDIUse=3 WtCom= 9.81D-01 WtEn= 1.91D-02
 Coeff-Com: -0.444D-01 0.209D+00 0.836D+00
 Coeff-En:   0.000D+00 0.000D+00 0.100D+01
 Coeff:     -0.435D-01 0.205D+00 0.839D+00
 Gap=     0.255 Goal=   None    Shift=    0.000
 RMSDP=4.00D-04 MaxDP=8.53D-03 DE=-6.05D-02 OVMax= 1.63D-02

 Cycle   4  Pass 1  IDiag  1:
 E= -155.873640774207     Delta-E=       -0.000176022458 Rises=F Damp=F
 DIIS: error= 1.66D-03 at cycle   4 NSaved=   4.
 NSaved= 4 IEnMin= 4 EnMin= -155.873640774207     IErMin= 4 ErrMin= 1.66D-03
 ErrMax= 1.66D-03  0.00D+00 EMaxC= 1.00D-01 BMatC= 3.59D-04 BMatP= 5.31D-04
 IDIUse=3 WtCom= 9.83D-01 WtEn= 1.66D-02
 Coeff-Com: -0.163D-01 0.482D-01 0.475D+00 0.493D+00
 Coeff-En:   0.000D+00 0.000D+00 0.408D+00 0.592D+00
 Coeff:     -0.160D-01 0.474D-01 0.474D+00 0.495D+00
 Gap=     0.255 Goal=   None    Shift=    0.000
 RMSDP=1.57D-04 MaxDP=3.83D-03 DE=-1.76D-04 OVMax= 9.12D-03

 Cycle   5  Pass 1  IDiag  1:
 E= -155.874016411631     Delta-E=       -0.000375637424 Rises=F Damp=F
 DIIS: error= 3.10D-04 at cycle   5 NSaved=   5.
 NSaved= 5 IEnMin= 5 EnMin= -155.874016411631     IErMin= 5 ErrMin= 3.10D-04
 ErrMax= 3.10D-04  0.00D+00 EMaxC= 1.00D-01 BMatC= 1.33D-05 BMatP= 3.59D-04
 IDIUse=3 WtCom= 9.97D-01 WtEn= 3.10D-03
 Coeff-Com: -0.309D-02 0.340D-02 0.129D+00 0.213D+00 0.658D+00
 Coeff-En:   0.000D+00 0.000D+00 0.000D+00 0.000D+00 0.100D+01
 Coeff:     -0.308D-02 0.339D-02 0.128D+00 0.212D+00 0.659D+00
 Gap=     0.255 Goal=   None    Shift=    0.000
 RMSDP=3.64D-05 MaxDP=9.62D-04 DE=-3.76D-04 OVMax= 1.37D-03

 Cycle   6  Pass 1  IDiag  1:
 E= -155.874029939975     Delta-E=       -0.000013528344 Rises=F Damp=F
 DIIS: error= 3.23D-05 at cycle   6 NSaved=   6.
 NSaved= 6 IEnMin= 6 EnMin= -155.874029939975     IErMin= 6 ErrMin= 3.23D-05
 ErrMax= 3.23D-05  0.00D+00 EMaxC= 1.00D-01 BMatC= 9.39D-08 BMatP= 1.33D-05
 IDIUse=1 WtCom= 1.00D+00 WtEn= 0.00D+00
 Coeff-Com:  0.388D-03-0.135D-02-0.813D-02-0.423D-02 0.581D-01 0.955D+00
 Coeff:      0.388D-03-0.135D-02-0.813D-02-0.423D-02 0.581D-01 0.955D+00
 Gap=     0.255 Goal=   None    Shift=    0.000
 RMSDP=4.14D-06 MaxDP=6.64D-05 DE=-1.35D-05 OVMax= 1.71D-04

 Cycle   7  Pass 1  IDiag  1:
 E= -155.874030079470     Delta-E=       -0.000000139496 Rises=F Damp=F
 DIIS: error= 4.73D-06 at cycle   7 NSaved=   7.
 NSaved= 7 IEnMin= 7 EnMin= -155.874030079470     IErMin= 7 ErrMin= 4.73D-06
 ErrMax= 4.73D-06  0.00D+00 EMaxC= 1.00D-01 BMatC= 3.19D-09 BMatP= 9.39D-08
 IDIUse=1 WtCom= 1.00D+00 WtEn= 0.00D+00
 Coeff-Com:  0.158D-03-0.307D-03-0.514D-02-0.858D-02-0.164D-01 0.868D-01
 Coeff-Com:  0.944D+00
 Coeff:      0.158D-03-0.307D-03-0.514D-02-0.858D-02-0.164D-01 0.868D-01
 Coeff:      0.944D+00
 Gap=     0.255 Goal=   None    Shift=    0.000
 RMSDP=1.53D-06 MaxDP=3.85D-05 DE=-1.39D-07 OVMax= 4.36D-05

 Cycle   8  Pass 1  IDiag  1:
 E= -155.874030085400     Delta-E=       -0.000000005929 Rises=F Damp=F
 DIIS: error= 8.80D-07 at cycle   8 NSaved=   8.
 NSaved= 8 IEnMin= 8 EnMin= -155.874030085400     IErMin= 8 ErrMin= 8.80D-07
 ErrMax= 8.80D-07  0.00D+00 EMaxC= 1.00D-01 BMatC= 9.32D-11 BMatP= 3.19D-09
 IDIUse=1 WtCom= 1.00D+00 WtEn= 0.00D+00
 Coeff-Com: -0.774D-05 0.399D-04 0.976D-04-0.356D-03-0.245D-02-0.309D-01
 Coeff-Com:  0.165D-01 0.102D+01
 Coeff:     -0.774D-05 0.399D-04 0.976D-04-0.356D-03-0.245D-02-0.309D-01
 Coeff:      0.165D-01 0.102D+01
 Gap=     0.255 Goal=   None    Shift=    0.000
 RMSDP=3.99D-07 MaxDP=1.10D-05 DE=-5.93D-09 OVMax= 1.22D-05

 Cycle   9  Pass 1  IDiag  1:
 E= -155.874030085635     Delta-E=       -0.000000000236 Rises=F Damp=F
 DIIS: error= 1.22D-07 at cycle   9 NSaved=   9.
 NSaved= 9 IEnMin= 9 EnMin= -155.874030085635     IErMin= 9 ErrMin= 1.22D-07
 ErrMax= 1.22D-07  0.00D+00 EMaxC= 1.00D-01 BMatC= 3.13D-12 BMatP= 9.32D-11
 IDIUse=1 WtCom= 1.00D+00 WtEn= 0.00D+00
 Coeff-Com: -0.454D-05 0.900D-05 0.159D-03 0.211D-03 0.454D-03-0.380D-02
 Coeff-Com: -0.299D-01 0.441D-01 0.989D+00
 Coeff:     -0.454D-05 0.900D-05 0.159D-03 0.211D-03 0.454D-03-0.380D-02
 Coeff:     -0.299D-01 0.441D-01 0.989D+00
 Gap=     0.255 Goal=   None    Shift=    0.000
 RMSDP=6.13D-08 MaxDP=1.81D-06 DE=-2.36D-10 OVMax= 1.71D-06

 Cycle  10  Pass 1  IDiag  1:
 E= -155.874030085642     Delta-E=       -0.000000000007 Rises=F Damp=F
 DIIS: error= 2.11D-08 at cycle  10 NSaved=  10.
 NSaved=10 IEnMin=10 EnMin= -155.874030085642     IErMin=10 ErrMin= 2.11D-08
 ErrMax= 2.11D-08  0.00D+00 EMaxC= 1.00D-01 BMatC= 8.43D-14 BMatP= 3.13D-12
 IDIUse=1 WtCom= 1.00D+00 WtEn= 0.00D+00
 Coeff-Com: -0.161D-07-0.562D-06 0.296D-05 0.408D-05 0.676D-04 0.690D-03
 Coeff-Com: -0.351D-03-0.238D-01 0.342D-02 0.102D+01
 Coeff:     -0.161D-07-0.562D-06 0.296D-05 0.408D-05 0.676D-04 0.690D-03
 Coeff:     -0.351D-03-0.238D-01 0.342D-02 0.102D+01
 Gap=     0.255 Goal=   None    Shift=    0.000
 RMSDP=9.99D-09 MaxDP=3.20D-07 DE=-6.71D-12 OVMax= 1.70D-07

 SCF Done:  E(RBMK) =  -155.874030086     A.U. after   10 cycles
            NFock= 10  Conv=0.10D-07     -V/T= 2.0098
 KE= 1.543552697897D+02 PE=-5.694933817972D+02 EE= 1.546200423402D+02
 Leave Link  502 at Mon Jun  1 23:41:15 2020, MaxMem= 12884901888 cpu:              80.4 elap:               5.8
 (Enter /project/qslin/software/g16/l801.exe)
 DoSCS=F DFT=T ScalE2(SS,OS)=  1.000000  1.000000
 Range of M.O.s used for correlation:     1   158
 NBasis=   158 NAE=    15 NBE=    15 NFC=     0 NFV=     0
 NROrb=    158 NOA=    15 NOB=    15 NVA=   143 NVB=   143

 **** Warning!!: The largest alpha MO coefficient is  0.54493053D+02

 Leave Link  801 at Mon Jun  1 23:41:16 2020, MaxMem= 12884901888 cpu:               2.8 elap:               0.5
 (Enter /project/qslin/software/g16/l1101.exe)
 Using compressed storage, NAtomX=    10.
 Will process     11 centers per pass.
 Leave Link 1101 at Mon Jun  1 23:41:19 2020, MaxMem= 12884901888 cpu:               6.0 elap:               0.8
 (Enter /project/qslin/software/g16/l1102.exe)
 Symmetrizing basis deriv contribution to polar:
 IMax=3 JMax=2 DiffMx= 0.00D+00
 Leave Link 1102 at Mon Jun  1 23:41:20 2020, MaxMem= 12884901888 cpu:               2.6 elap:               0.8
 (Enter /project/qslin/software/g16/l1110.exe)
 Forming Gx(P) for the SCF density, NAtomX=    10.
 Integral derivatives from FoFJK, PRISM(SPDF).
 Do as many integral derivatives as possible in FoFJK.
 G2DrvN: MDV=   12884901052.
 G2DrvN: will do    11 centers at a time, making    1 passes.
 Calling FoFCou, ICntrl=  3107 FMM=F I1Cent=   0 AccDes= 0.00D+00.
 FoFJK:  IHMeth= 1 ICntrl=    3107 DoSepK=F KAlg= 0 I1Cent=           0 FoldK=F
 IRaf=         0 NMat=       1 IRICut=       1 DoRegI=T DoRafI=F ISym2E= 1 IDoP0=0 IntGTp=1.
 FoFCou: FMM=F IPFlag=           0 FMFlag=      100000 FMFlg1=           0
         NFxFlg=           0 DoJE=F BraDBF=F KetDBF=F FulRan=T
         wScrn=  0.000000 ICntrl=      3107 IOpCl=  0 I1Cent=           0 NGrid=           0
         NMat0=    1 NMatS0=      1 NMatT0=    0 NMatD0=    1 NMtDS0=    0 NMtDT0=    0
 Petite list used in FoFCou.
 End of G2Drv F.D. properties file   721 does not exist.
 End of G2Drv F.D. properties file   722 does not exist.
 End of G2Drv F.D. properties file   788 does not exist.
 Leave Link 1110 at Mon Jun  1 23:41:30 2020, MaxMem= 12884901888 cpu:             134.9 elap:               8.9
 (Enter /project/qslin/software/g16/l1002.exe)
 Minotr:  Closed shell wavefunction.
          IDoAtm=1111111111
          Direct CPHF calculation.
          Differentiating once with respect to nuclear coordinates.
          Using symmetry in CPHF.
          Requested convergence is 1.0D-08 RMS, and 1.0D-07 maximum.
          Secondary convergence is 1.0D-12 RMS, and 1.0D-12 maximum.
          NewPWx=T KeepS1=F KeepF1=F KeepIn=T MapXYZ=F SortEE=F KeepMc=T.
         3023 words used for storage of precomputed grid.
 Keep R1 ints in memory in symmetry-blocked form, NReq=118380306.
 FoFCou: FMM=F IPFlag=           0 FMFlag=           0 FMFlg1=           0
         NFxFlg=           0 DoJE=F BraDBF=F KetDBF=F FulRan=T
         wScrn=  0.000000 ICntrl=       600 IOpCl=  0 I1Cent=           0 NGrid=           0
         NMat0=    1 NMatS0=  12561 NMatT0=    0 NMatD0=    1 NMtDS0=    0 NMtDT0=    0
 Petite list used in FoFCou.
          MDV=   12884901888 using IRadAn=       1.
          Solving linear equations simultaneously, MaxMat=       0.
          There are    18 degrees of freedom in the 1st order CPHF.  IDoFFX=4 NUNeed=    18.
     15 vectors produced by pass  0 Test12= 1.19D-14 5.56D-09 XBig12= 5.52D-02 8.94D-02.
 AX will form    15 AO Fock derivatives at one time.
     15 vectors produced by pass  1 Test12= 1.19D-14 5.56D-09 XBig12= 5.73D-03 3.26D-02.
     15 vectors produced by pass  2 Test12= 1.19D-14 5.56D-09 XBig12= 2.50D-04 4.53D-03.
     15 vectors produced by pass  3 Test12= 1.19D-14 5.56D-09 XBig12= 3.38D-06 4.19D-04.
     15 vectors produced by pass  4 Test12= 1.19D-14 5.56D-09 XBig12= 2.65D-08 2.98D-05.
     15 vectors produced by pass  5 Test12= 1.19D-14 5.56D-09 XBig12= 2.67D-10 2.87D-06.
     12 vectors produced by pass  6 Test12= 1.19D-14 5.56D-09 XBig12= 1.92D-12 2.89D-07.
      5 vectors produced by pass  7 Test12= 1.19D-14 5.56D-09 XBig12= 9.42D-15 1.58D-08.
 InvSVY:  IOpt=1 It=  1 EMax= 1.78D-15
 Solved reduced A of dimension   107 with    15 vectors.
 FullF1:  Do perturbations      4 to      18.
 End of Minotr F.D. properties file   721 does not exist.
 End of Minotr F.D. properties file   722 does not exist.
 End of Minotr F.D. properties file   788 does not exist.
 Leave Link 1002 at Mon Jun  1 23:41:42 2020, MaxMem= 12884901888 cpu:             163.0 elap:              11.3
 (Enter /project/qslin/software/g16/l601.exe)
 Copying SCF densities to generalized density rwf, IOpCl= 0 IROHF=0.

 **********************************************************************

            Population analysis using the SCF density.

 **********************************************************************

 Orbital symmetries:
       Occupied  (A) (B) (B) (A) (A) (B) (A) (B) (A) (A) (B) (B)
                 (A) (B) (A)
       Virtual   (B) (A) (A) (B) (B) (A) (A) (B) (A) (B) (A) (A)
                 (B) (B) (A) (A) (B) (B) (A) (A) (B) (B) (B) (A)
                 (A) (B) (B) (A) (B) (A) (B) (A) (B) (A) (A) (B)
                 (B) (A) (B) (A) (B) (A) (B) (A) (A) (B) (B) (A)
                 (B) (A) (B) (B) (A) (A) (B) (A) (B) (A) (B) (A)
                 (B) (A) (A) (B) (B) (A) (A) (B) (B) (B) (A) (B)
                 (A) (A) (A) (B) (B) (A) (B) (A) (A) (B) (A) (B)
                 (A) (B) (B) (A) (B) (A) (B) (A) (A) (B) (B) (A)
                 (B) (A) (B) (A) (B) (A) (A) (B) (A) (B) (B) (A)
                 (B) (B) (B) (A) (A) (A) (A) (B) (A) (B) (B) (A)
                 (B) (A) (B) (A) (B) (A) (B) (A) (A) (B) (B) (A)
                 (B) (A) (A) (B) (B) (A) (B) (A) (B) (A) (B)
 The electronic state is 1-A.
 Alpha  occ. eigenvalues --  -10.49274 -10.49244 -10.47663 -10.47662  -0.87264
 Alpha  occ. eigenvalues --   -0.79383  -0.67712  -0.59248  -0.54882  -0.47939
 Alpha  occ. eigenvalues --   -0.46587  -0.41660  -0.39202  -0.35516  -0.26984
 Alpha virt. eigenvalues --   -0.01469   0.05567   0.05987   0.06478   0.07767
 Alpha virt. eigenvalues --    0.07806   0.10736   0.11288   0.13280   0.13288
 Alpha virt. eigenvalues --    0.14017   0.14635   0.15473   0.17805   0.18796
 Alpha virt. eigenvalues --    0.19576   0.20066   0.22910   0.24393   0.26052
 Alpha virt. eigenvalues --    0.27127   0.29043   0.32292   0.35109   0.35935
 Alpha virt. eigenvalues --    0.44286   0.45645   0.57483   0.64511   0.65331
 Alpha virt. eigenvalues --    0.68937   0.70269   0.70293   0.72681   0.74709
 Alpha virt. eigenvalues --    0.76065   0.76435   0.77942   0.83980   0.85401
 Alpha virt. eigenvalues --    0.86564   0.89397   0.90991   0.94426   0.97440
 Alpha virt. eigenvalues --    0.98247   0.99583   1.00160   1.03804   1.09385
 Alpha virt. eigenvalues --    1.10858   1.16113   1.16801   1.24211   1.33271
 Alpha virt. eigenvalues --    1.42524   1.44180   1.56273   1.59330   1.65211
 Alpha virt. eigenvalues --    1.71730   1.72216   1.75835   1.78098   1.83814
 Alpha virt. eigenvalues --    1.85260   1.90861   1.97852   2.19724   2.22427
 Alpha virt. eigenvalues --    2.30308   2.32604   2.34037   2.40106   2.47725
 Alpha virt. eigenvalues --    2.50778   2.70642   2.77004   2.83686   2.86587
 Alpha virt. eigenvalues --    2.89308   2.91900   2.93253   2.93478   2.96558
 Alpha virt. eigenvalues --    2.99436   3.03284   3.05920   3.06371   3.11452
 Alpha virt. eigenvalues --    3.14269   3.25135   3.28046   3.29399   3.34938
 Alpha virt. eigenvalues --    3.37120   3.37699   3.41805   3.42809   3.48222
 Alpha virt. eigenvalues --    3.52359   3.52697   3.58050   3.59070   3.71706
 Alpha virt. eigenvalues --    3.74676   3.76435   3.80679   3.84702   3.88724
 Alpha virt. eigenvalues --    4.05475   4.07108   4.11315   4.23444   4.29118
 Alpha virt. eigenvalues --    4.30354   4.37738   4.43577   4.44328   4.49089
 Alpha virt. eigenvalues --    4.53639   4.53910   4.59341   4.64508   4.66014
 Alpha virt. eigenvalues --    4.72175   4.75288   4.86956   4.99430   5.01998
 Alpha virt. eigenvalues --    5.18093   5.18867   5.22665   5.29441   5.49164
 Alpha virt. eigenvalues --    5.54850   5.60590   5.78598   6.40549  10.84593
 Alpha virt. eigenvalues --   11.42056  11.68496  12.11763
          Condensed to atoms (all electrons):
               1          2          3          4          5          6
     1  C    5.004613   0.671713   0.377665   0.345018   0.008598   0.056790
     2  C    0.671713   4.702343  -0.011016   0.012899   0.333860   0.350180
     3  H    0.377665  -0.011016   0.545438  -0.033630   0.005133  -0.023557
     4  H    0.345018   0.012899  -0.033630   0.517468  -0.005581   0.002398
     5  H    0.008598   0.333860   0.005133  -0.005581   0.553605  -0.037402
     6  C    0.056790   0.350180  -0.023557   0.002398  -0.037402   4.702343
     7  C   -0.075004   0.056790   0.000214   0.004486  -0.006300   0.671713
     8  H   -0.006300  -0.037402  -0.000041  -0.000100  -0.003161   0.333860
     9  H    0.004486   0.002398  -0.000036  -0.000001  -0.000100   0.012899
    10  H    0.000214  -0.023557   0.002300  -0.000036  -0.000041  -0.011016
               7          8          9         10
     1  C   -0.075004  -0.006300   0.004486   0.000214
     2  C    0.056790  -0.037402   0.002398  -0.023557
     3  H    0.000214  -0.000041  -0.000036   0.002300
     4  H    0.004486  -0.000100  -0.000001  -0.000036
     5  H   -0.006300  -0.003161  -0.000100  -0.000041
     6  C    0.671713   0.333860   0.012899  -0.011016
     7  C    5.004613   0.008598   0.345018   0.377665
     8  H    0.008598   0.553605  -0.005581   0.005133
     9  H    0.345018  -0.005581   0.517468  -0.033630
    10  H    0.377665   0.005133  -0.033630   0.545438
 Mulliken charges:
               1
     1  C   -0.387793
     2  C   -0.058206
     3  H    0.137529
     4  H    0.157079
     5  H    0.151390
     6  C   -0.058206
     7  C   -0.387793
     8  H    0.151390
     9  H    0.157079
    10  H    0.137529
 Sum of Mulliken charges =  -0.00000
 Mulliken charges with hydrogens summed into heavy atoms:
               1
     1  C   -0.093184
     2  C    0.093184
     6  C    0.093184
     7  C   -0.093184
 APT charges:
               1
     1  C   -0.643900
     2  C   -0.633533
     3  H    0.258998
     4  H    0.555093
     5  H    0.463341
     6  C   -0.633533
     7  C   -0.643900
     8  H    0.463341
     9  H    0.555093
    10  H    0.258998
 Sum of APT charges =  -0.00000
 APT charges with hydrogens summed into heavy atoms:
               1
     1  C    0.170192
     2  C   -0.170192
     6  C   -0.170192
     7  C    0.170192
 Electronic spatial extent (au):  <R**2>=            300.2706
 Charge=             -0.0000 electrons
 Dipole moment (field-independent basis, Debye):
    X=             -0.0000    Y=              0.0000    Z=              0.1240  Tot=              0.1240
 Quadrupole moment (field-independent basis, Debye-Ang):
   XX=            -28.5045   YY=            -23.8347   ZZ=            -22.7561
   XY=              1.7375   XZ=              0.0000   YZ=              0.0000
 Traceless Quadrupole moment (field-independent basis, Debye-Ang):
   XX=             -3.4728   YY=              1.1971   ZZ=              2.2756
   XY=              1.7375   XZ=              0.0000   YZ=              0.0000
 Octapole moment (field-independent basis, Debye-Ang**2):
  XXX=              0.0000  YYY=              0.0000  ZZZ=              1.1525  XYY=              0.0000
  XXY=             -0.0000  XXZ=              0.7276  XZZ=              0.0000  YZZ=              0.0000
  YYZ=             -0.0791  XYZ=              1.3468
 Hexadecapole moment (field-independent basis, Debye-Ang**3):
 XXXX=            -49.7163 YYYY=           -249.0813 ZZZZ=           -103.0227 XXXY=            -25.7262
 XXXZ=             -0.0000 YYYX=            -10.7073 YYYZ=             -0.0000 ZZZX=              0.0000
 ZZZY=              0.0000 XXYY=            -56.1927 XXZZ=            -26.5981 YYZZ=            -61.7642
 XXYZ=              0.0000 YYXZ=             -0.0000 ZZXY=             -6.1981
 N-N= 1.046440395817D+02 E-N=-5.694933813499D+02  KE= 1.543552697897D+02
 Symmetry A    KE= 7.824892186049D+01
 Symmetry B    KE= 7.610634792921D+01
  Exact polarizability:   0.000   0.000   0.000   0.000   0.000   0.000
 Approx polarizability:  41.191   4.101  69.314  -0.000   0.000  69.779
 No NMR shielding tensors so no spin-rotation constants.
 Leave Link  601 at Mon Jun  1 23:41:44 2020, MaxMem= 12884901888 cpu:              10.9 elap:               1.2
 (Enter /project/qslin/software/g16/l701.exe)
 ... and contract with generalized density number  0.
 Compute integral second derivatives.
 Leave Link  701 at Mon Jun  1 23:41:46 2020, MaxMem= 12884901888 cpu:               6.4 elap:               0.7
 (Enter /project/qslin/software/g16/l702.exe)
 L702 exits ... SP integral derivatives will be done elsewhere.
 Leave Link  702 at Mon Jun  1 23:41:49 2020, MaxMem= 12884901888 cpu:               0.5 elap:               0.1
 (Enter /project/qslin/software/g16/l703.exe)
 Integral derivatives from FoFJK, PRISM(SPDF).
 Compute integral second derivatives, UseDBF=F ICtDFT=           0.
 Calling FoFJK, ICntrl=    100147 FMM=F ISym2X=1 I1Cent= 0 IOpClX= 0 NMat=1 NMatS=1 NMatT=0.
 FoFJK:  IHMeth= 1 ICntrl=  100147 DoSepK=F KAlg= 0 I1Cent=           0 FoldK=F
 IRaf=         0 NMat=       1 IRICut=       1 DoRegI=T DoRafI=F ISym2E= 1 IDoP0=0 IntGTp=1.
 FoFCou: FMM=F IPFlag=           0 FMFlag=      100000 FMFlg1=         800
         NFxFlg=           0 DoJE=F BraDBF=F KetDBF=F FulRan=T
         wScrn=  0.000000 ICntrl=    100147 IOpCl=  0 I1Cent=           0 NGrid=           0
         NMat0=    1 NMatS0=      1 NMatT0=    0 NMatD0=    1 NMtDS0=    0 NMtDT0=    0
 Petite list used in FoFCou.
 Leave Link  703 at Mon Jun  1 23:42:01 2020, MaxMem= 12884901888 cpu:             192.0 elap:              12.2
 (Enter /project/qslin/software/g16/l716.exe)
 Dipole        =-1.39047143D-17 8.49753783D-16 4.87979008D-02
 Polarizability= 0.00000000D+00 0.00000000D+00 0.00000000D+00
                 0.00000000D+00 0.00000000D+00 0.00000000D+00
 ***** Axes restored to original set *****
 -------------------------------------------------------------------
 Center     Atomic                   Forces (Hartrees/Bohr)
 Number     Number              X              Y              Z
 -------------------------------------------------------------------
      1        6           0.003925911    0.010221531   -0.031455775
      2        6          -0.010090795    0.029172056    0.029544166
      3        1          -0.004656570   -0.000155137    0.011134943
      4        1           0.001736592   -0.011780171    0.003376405
      5        1           0.001415739   -0.003173677   -0.012599740
      6        6           0.010090795   -0.029172056    0.029544166
      7        6          -0.003925911   -0.010221531   -0.031455775
      8        1          -0.001415739    0.003173677   -0.012599740
      9        1          -0.001736592    0.011780171    0.003376405
     10        1           0.004656570    0.000155137    0.011134943
 -------------------------------------------------------------------
 Cartesian Forces:  Max     0.031455775 RMS     0.015065992
 Force constants in Cartesian coordinates: 
                1             2             3             4             5 
      1  0.130576D+00
      2 -0.546119D-01  0.736736D+00
      3 -0.112048D+00 -0.376575D-01  0.738437D+00
      4 -0.654576D-01 -0.147512D-01  0.443021D-01  0.159129D+00
      5 -0.138474D-01 -0.200036D+00  0.149767D+00 -0.338249D-01  0.530700D+00
      6  0.436819D-01  0.159388D+00 -0.388065D+00 -0.106032D+00 -0.215287D-01
      7 -0.465883D-01  0.338245D-01  0.610687D-01  0.486876D-02  0.492739D-02
      8  0.367399D-01 -0.129921D+00 -0.137491D+00 -0.400940D-02  0.121342D-01
      9  0.599737D-01 -0.130411D+00 -0.284095D+00  0.664603D-02 -0.153853D-01
     10 -0.326794D-01  0.358266D-01  0.434518D-02  0.645356D-02 -0.445971D-02
     11  0.344695D-01 -0.375195D+00 -0.644516D-03  0.268870D-02 -0.119491D-01
     12  0.472103D-02 -0.620895D-02 -0.519705D-01 -0.218894D-02  0.302460D-01
     13  0.538673D-02  0.187951D-02  0.359892D-02 -0.473738D-01  0.351732D-01
     14 -0.380134D-02  0.105802D-01  0.190016D-01  0.353858D-01 -0.126187D+00
     15  0.596450D-02 -0.161420D-01 -0.190090D-01  0.579683D-01 -0.131788D+00
     16  0.681885D-02 -0.280628D-02 -0.576171D-03 -0.695494D-01  0.128978D-01
     17  0.123986D-02 -0.302495D-01  0.154243D-01  0.128978D-01 -0.167611D+00
     18 -0.247374D-02  0.263602D-01  0.930492D-02 -0.141453D-02  0.698530D-02
     19  0.125045D-02 -0.561494D-03  0.210697D-03  0.681885D-02  0.123986D-02
     20 -0.561494D-03 -0.257208D-02 -0.456182D-02 -0.280628D-02 -0.302495D-01
     21 -0.210697D-03  0.456182D-02 -0.508365D-02  0.576171D-03 -0.154243D-01
     22  0.911637D-03  0.926909D-03  0.504384D-04  0.179318D-02 -0.128799D-02
     23  0.129495D-02 -0.590208D-02 -0.219174D-02  0.419204D-02 -0.675898D-02
     24 -0.366428D-03 -0.124960D-02  0.380957D-03  0.110925D-02 -0.428334D-02
     25 -0.550772D-03  0.996318D-03  0.726888D-03  0.103409D-01  0.176029D-02
     26 -0.126694D-04  0.469065D-03  0.106742D-04  0.845973D-03  0.674160D-03
     27  0.440762D-03  0.241700D-03 -0.511425D-03 -0.228616D-02 -0.127400D-02
     28  0.332549D-03 -0.723113D-03 -0.167875D-02 -0.702342D-02 -0.257860D-02
     29 -0.909449D-03 -0.390995D-02 -0.165689D-02 -0.618633D-03 -0.717382D-03
     30  0.317012D-03  0.111667D-02  0.612612D-03  0.131940D-02  0.268529D-02
                6             7             8             9            10 
      6  0.794679D+00
      7  0.274549D-02  0.338553D-01
      8  0.151866D-01 -0.346720D-01  0.136520D+00
      9 -0.212591D-01 -0.662968D-01  0.142193D+00  0.301436D+00
     10  0.279426D-03  0.215945D-02  0.500663D-02 -0.109930D-02  0.220473D-01
     11 -0.451480D-02  0.149212D-03 -0.690282D-02  0.425269D-02 -0.372072D-01
     12  0.253094D-02  0.232454D-02 -0.237375D-01  0.434440D-02 -0.524619D-02
     13  0.580574D-01  0.114937D-01  0.523274D-03  0.217147D-02 -0.728481D-02
     14 -0.138242D+00  0.608086D-03 -0.150629D-02  0.349775D-02 -0.861876D-03
     15 -0.288379D+00  0.218857D-02  0.325737D-02 -0.265074D-02 -0.144316D-02
     16  0.141453D-02 -0.702342D-02 -0.618633D-03 -0.131940D-02  0.103409D-01
     17 -0.698530D-02 -0.257860D-02 -0.717382D-03 -0.268529D-02  0.176029D-02
     18 -0.109443D+00 -0.283156D-02 -0.120099D-02 -0.428717D-03  0.385567D-02
     19  0.247374D-02  0.332549D-03 -0.909449D-03 -0.317012D-03 -0.550772D-03
     20 -0.263602D-01 -0.723113D-03 -0.390995D-02 -0.111667D-02  0.996318D-03
     21  0.930492D-02  0.167875D-02  0.165689D-02  0.612612D-03 -0.726888D-03
     22 -0.159665D-02  0.195290D-03 -0.665356D-04 -0.888795D-04 -0.125401D-05
     23  0.248783D-01  0.331641D-03  0.276722D-03  0.160416D-03 -0.101529D-02
     24  0.531256D-02 -0.630729D-04 -0.213312D-03  0.967161D-04 -0.219712D-03
     25 -0.385567D-02 -0.283428D-03  0.338465D-04 -0.104690D-03 -0.201634D-03
     26 -0.302326D-02  0.160477D-03  0.160419D-03 -0.129978D-03 -0.796163D-04
     27 -0.425204D-02 -0.379833D-03 -0.280411D-04  0.569328D-03  0.150279D-03
     28  0.283156D-02  0.990118D-03 -0.202762D-02  0.434832D-03 -0.283428D-03
     29  0.120099D-02 -0.202762D-02 -0.613377D-02 -0.376587D-03  0.338465D-04
     30 -0.428717D-03 -0.434832D-03  0.376587D-03  0.137496D-02  0.104690D-03
               11            12            13            14            15 
     11  0.392544D+00
     12 -0.220037D-02  0.476225D-01
     13 -0.849759D-03 -0.152081D-02  0.350339D-01
     14  0.997298D-03 -0.429651D-03 -0.359152D-01  0.128751D+00
     15  0.582965D-04  0.897497D-03 -0.641624D-01  0.139532D+00  0.303172D+00
     16  0.845973D-03  0.228616D-02  0.179318D-02  0.419204D-02 -0.110925D-02
     17  0.674160D-03  0.127400D-02 -0.128799D-02 -0.675898D-02  0.428334D-02
     18  0.302326D-02 -0.425204D-02  0.159665D-02 -0.248783D-01  0.531256D-02
     19 -0.126694D-04 -0.440762D-03  0.911637D-03  0.129495D-02  0.366428D-03
     20  0.469065D-03 -0.241700D-03  0.926909D-03 -0.590208D-02  0.124960D-02
     21 -0.106742D-04 -0.511425D-03 -0.504384D-04  0.219174D-02  0.380957D-03
     22 -0.164619D-03 -0.164591D-03 -0.154656D-03 -0.218859D-03 -0.557970D-04
     23 -0.742469D-03  0.136556D-02 -0.218859D-03  0.491958D-03 -0.852915D-03
     24 -0.189348D-03  0.235836D-03  0.557970D-04  0.852915D-03 -0.567491D-04
     25 -0.796163D-04 -0.150279D-03 -0.125401D-05 -0.101529D-02  0.219712D-03
     26 -0.548390D-04 -0.954853D-04 -0.164619D-03 -0.742469D-03  0.189348D-03
     27  0.954853D-04  0.533408D-03  0.164591D-03 -0.136556D-02  0.235836D-03
     28  0.160477D-03  0.379833D-03  0.195290D-03  0.331641D-03  0.630729D-04
     29  0.160419D-03  0.280411D-04 -0.665356D-04  0.276722D-03  0.213312D-03
     30  0.129978D-03  0.569328D-03  0.888795D-04 -0.160416D-03  0.967161D-04
               16            17            18            19            20 
     16  0.159129D+00
     17 -0.338249D-01  0.530700D+00
     18  0.106032D+00  0.215287D-01  0.794679D+00
     19 -0.654576D-01 -0.138474D-01 -0.436819D-01  0.130576D+00
     20 -0.147512D-01 -0.200036D+00 -0.159388D+00 -0.546119D-01  0.736736D+00
     21 -0.443021D-01 -0.149767D+00 -0.388065D+00  0.112048D+00  0.376575D-01
     22 -0.473738D-01  0.351732D-01 -0.580574D-01  0.538673D-02  0.187951D-02
     23  0.353858D-01 -0.126187D+00  0.138242D+00 -0.380134D-02  0.105802D-01
     24 -0.579683D-01  0.131788D+00 -0.288379D+00 -0.596450D-02  0.161420D-01
     25  0.645356D-02 -0.445971D-02 -0.279426D-03 -0.326794D-01  0.358266D-01
     26  0.268870D-02 -0.119491D-01  0.451480D-02  0.344695D-01 -0.375195D+00
     27  0.218894D-02 -0.302460D-01  0.253094D-02 -0.472103D-02  0.620895D-02
     28  0.486876D-02  0.492739D-02 -0.274549D-02 -0.465883D-01  0.338245D-01
     29 -0.400940D-02  0.121342D-01 -0.151866D-01  0.367399D-01 -0.129921D+00
     30 -0.664603D-02  0.153853D-01 -0.212591D-01 -0.599737D-01  0.130411D+00
               21            22            23            24            25 
     21  0.738437D+00
     22 -0.359892D-02  0.350339D-01
     23 -0.190016D-01 -0.359152D-01  0.128751D+00
     24 -0.190090D-01  0.641624D-01 -0.139532D+00  0.303172D+00
     25 -0.434518D-02 -0.728481D-02 -0.861876D-03  0.144316D-02  0.220473D-01
     26  0.644516D-03 -0.849759D-03  0.997298D-03 -0.582965D-04 -0.372072D-01
     27 -0.519705D-01  0.152081D-02  0.429651D-03  0.897497D-03  0.524619D-02
     28 -0.610687D-01  0.114937D-01  0.608086D-03 -0.218857D-02  0.215945D-02
     29  0.137491D+00  0.523274D-03 -0.150629D-02 -0.325737D-02  0.500663D-02
     30 -0.284095D+00 -0.217147D-02 -0.349775D-02 -0.265074D-02  0.109930D-02
               26            27            28            29            30 
     26  0.392544D+00
     27  0.220037D-02  0.476225D-01
     28  0.149212D-03 -0.232454D-02  0.338553D-01
     29 -0.690282D-02  0.237375D-01 -0.346720D-01  0.136520D+00
     30 -0.425269D-02  0.434440D-02  0.662968D-01 -0.142193D+00  0.301436D+00
 FormGI is forming the generalized inverse of G from B-inverse, IUseBI=4.
 Force constants in internal coordinates: 
                1             2             3             4             5 
      1  0.550940D+00
      2  0.140303D-02  0.398571D+00
      3  0.359164D-02 -0.156324D-03  0.396248D+00
      4  0.365616D-02 -0.977445D-04  0.717544D-03  0.395478D+00
      5  0.310896D-01 -0.734165D-02 -0.346908D-03  0.171495D-02  0.269379D+00
      6 -0.427484D-02 -0.419064D-03 -0.467503D-03  0.103246D-03  0.310896D-01
      7  0.103246D-03  0.118501D-03  0.132273D-03  0.489447D-03  0.171495D-02
      8 -0.467503D-03 -0.731113D-04  0.362613D-04  0.132273D-03 -0.346908D-03
      9 -0.419064D-03  0.255017D-02 -0.731113D-04  0.118501D-03 -0.734165D-02
     10  0.160177D-01 -0.668039D-03 -0.115516D-01  0.351852D-02  0.772705D-02
     11  0.878488D-02 -0.808670D-02  0.579982D-02 -0.264156D-02 -0.189965D-02
     12 -0.248025D-01  0.875474D-02  0.575176D-02 -0.876960D-03 -0.582740D-02
     13  0.626027D-02  0.133121D-01 -0.303541D-02  0.702832D-02 -0.471890D-01
     14  0.240010D-01 -0.216330D-01  0.439436D-02 -0.115400D-01  0.663709D-01
     15 -0.302612D-01  0.832089D-02 -0.135895D-02  0.451165D-02 -0.191819D-01
     16  0.912192D-02 -0.139840D-01 -0.106167D-02  0.235188D-02  0.663709D-01
     17 -0.149484D-02  0.722990D-02  0.118662D-02 -0.960599D-03 -0.191819D-01
     18 -0.762707D-02  0.675405D-02 -0.124960D-03 -0.139128D-02 -0.471890D-01
     19 -0.213558D-02  0.207994D-02  0.499134D-04  0.903101D-03 -0.189965D-02
     20  0.481568D-02 -0.294683D-02 -0.201463D-03 -0.712873D-03  0.772705D-02
     21 -0.268010D-02  0.866882D-03  0.151550D-03 -0.190228D-03 -0.582740D-02
     22  0.767341D-03 -0.205036D-02 -0.803572D-04 -0.998355D-04  0.710294D-02
     23  0.481687D-03 -0.113143D-02  0.553397D-04 -0.166019D-03  0.306432D-02
     24  0.835943D-04 -0.868111D-03 -0.264279D-03 -0.146179D-04  0.309854D-02
     25 -0.202059D-03  0.508254D-04 -0.128582D-03 -0.808016D-04 -0.940082D-03
     26  0.198504D-02 -0.331663D-02 -0.313637D-03 -0.319632D-03  0.994469D-02
     27  0.132656D-02 -0.175164D-02 -0.333457D-03 -0.346330D-03  0.590607D-02
     28  0.169938D-02 -0.239769D-02 -0.177941D-03 -0.385816D-03  0.590607D-02
     29  0.104091D-02 -0.832704D-03 -0.197760D-03 -0.412514D-03  0.186745D-02
     30 -0.245602D-03  0.878974D-03 -0.723049D-04 -0.200789D-03 -0.940082D-03
     31  0.133695D-03 -0.437876D-03 -0.160488D-03 -0.198383D-03  0.306432D-02
     32  0.412873D-03 -0.686014D-03 -0.524854D-04 -0.174091D-03  0.309854D-02
     33  0.792170D-03 -0.200286D-02 -0.140669D-03 -0.171685D-03  0.710294D-02
                6             7             8             9            10 
      6  0.550940D+00
      7  0.365616D-02  0.395478D+00
      8  0.359164D-02  0.717544D-03  0.396248D+00
      9  0.140303D-02 -0.977445D-04 -0.156324D-03  0.398571D+00
     10  0.481568D-02 -0.712873D-03 -0.201463D-03 -0.294683D-02  0.910477D-01
     11 -0.213558D-02  0.903101D-03  0.499134D-04  0.207994D-02 -0.510085D-01
     12 -0.268010D-02 -0.190228D-03  0.151550D-03  0.866882D-03 -0.400392D-01
     13 -0.762707D-02 -0.139128D-02 -0.124960D-03  0.675405D-02 -0.108785D-02
     14  0.912192D-02  0.235188D-02 -0.106167D-02 -0.139840D-01  0.158546D-01
     15 -0.149484D-02 -0.960599D-03  0.118662D-02  0.722990D-02 -0.147668D-01
     16  0.240010D-01 -0.115400D-01  0.439436D-02 -0.216330D-01  0.254368D-01
     17 -0.302612D-01  0.451165D-02 -0.135895D-02  0.832089D-02 -0.138644D-01
     18  0.626027D-02  0.702832D-02 -0.303541D-02  0.133121D-01 -0.115724D-01
     19  0.878488D-02 -0.264156D-02  0.579982D-02 -0.808670D-02 -0.428021D-02
     20  0.160177D-01  0.351852D-02 -0.115516D-01 -0.668039D-03  0.847883D-02
     21 -0.248025D-01 -0.876960D-03  0.575176D-02  0.875474D-02 -0.419862D-02
     22  0.792170D-03 -0.171685D-03 -0.140669D-03 -0.200286D-02  0.513529D-02
     23  0.133695D-03 -0.198383D-03 -0.160488D-03 -0.437876D-03  0.339765D-02
     24  0.412873D-03 -0.174091D-03 -0.524854D-04 -0.686014D-03  0.796096D-03
     25 -0.245602D-03 -0.200789D-03 -0.723049D-04  0.878974D-03 -0.941537D-03
     26  0.198504D-02 -0.319632D-03 -0.313637D-03 -0.331663D-02  0.606305D-02
     27  0.169938D-02 -0.385816D-03 -0.177941D-03 -0.239769D-02  0.360898D-02
     28  0.132656D-02 -0.346330D-03 -0.333457D-03 -0.175164D-02  0.432542D-02
     29  0.104091D-02 -0.412514D-03 -0.197760D-03 -0.832704D-03  0.187135D-02
     30 -0.202059D-03 -0.808016D-04 -0.128582D-03  0.508254D-04 -0.112661D-02
     31  0.481687D-03 -0.166019D-03  0.553397D-04 -0.113143D-02  0.147050D-02
     32  0.835943D-04 -0.146179D-04 -0.264279D-03 -0.868111D-03  0.132745D-02
     33  0.767341D-03 -0.998355D-04 -0.803572D-04 -0.205036D-02  0.392457D-02
               11            12            13            14            15 
     11  0.839978D-01
     12 -0.329894D-01  0.730286D-01
     13 -0.289572D-02  0.398356D-02  0.111810D+00
     14 -0.276225D-02 -0.130924D-01 -0.103225D+00  0.201387D+00
     15  0.565797D-02  0.910881D-02 -0.858451D-02 -0.981623D-01  0.106747D+00
     16 -0.151947D-01 -0.102421D-01 -0.482812D-01  0.800402D-01 -0.317590D-01
     17  0.964584D-02  0.421855D-02  0.211563D-01 -0.317590D-01  0.106027D-01
     18  0.554882D-02  0.602354D-02  0.271249D-01 -0.482812D-01  0.211563D-01
     19  0.257584D-02  0.170438D-02  0.554882D-02 -0.151947D-01  0.964584D-02
     20 -0.428021D-02 -0.419862D-02 -0.115724D-01  0.254368D-01 -0.138644D-01
     21  0.170438D-02  0.249424D-02  0.602354D-02 -0.102421D-01  0.421855D-02
     22 -0.278545D-02 -0.234983D-02 -0.532912D-02  0.119940D-01 -0.666488D-02
     23 -0.195548D-02 -0.144217D-02 -0.305922D-02  0.473692D-02 -0.167770D-02
     24 -0.514438D-04 -0.744652D-03 -0.161712D-02  0.434954D-02 -0.273242D-02
     25  0.778530D-03  0.163008D-03  0.652769D-03 -0.290753D-02  0.225476D-02
     26 -0.304557D-02 -0.301748D-02 -0.939589D-02  0.194045D-01 -0.100086D-01
     27 -0.162217D-02 -0.198681D-02 -0.532284D-02  0.126822D-01 -0.735938D-02
     28 -0.221559D-02 -0.210982D-02 -0.712600D-02  0.121474D-01 -0.502144D-02
     29 -0.792199D-03 -0.107915D-02 -0.305295D-02  0.542515D-02 -0.237220D-02
     30  0.821408D-03  0.305204D-03  0.161031D-02 -0.105129D-02 -0.559027D-03
     31 -0.382999D-03 -0.108750D-02 -0.213175D-02  0.555811D-02 -0.342636D-02
     32 -0.601986D-03 -0.725466D-03 -0.246273D-02  0.567099D-02 -0.320826D-02
     33 -0.180639D-02 -0.211817D-02 -0.620479D-02  0.122804D-01 -0.607560D-02
               16            17            18            19            20 
     16  0.201387D+00
     17 -0.981623D-01  0.106747D+00
     18 -0.103225D+00 -0.858451D-02  0.111810D+00
     19 -0.276225D-02  0.565797D-02 -0.289572D-02  0.839978D-01
     20  0.158546D-01 -0.147668D-01 -0.108785D-02 -0.510085D-01  0.910477D-01
     21 -0.130924D-01  0.910881D-02  0.398356D-02 -0.329894D-01 -0.400392D-01
     22  0.122804D-01 -0.607560D-02 -0.620479D-02 -0.180639D-02  0.392457D-02
     23  0.555811D-02 -0.342636D-02 -0.213175D-02 -0.382999D-03  0.147050D-02
     24  0.567099D-02 -0.320826D-02 -0.246273D-02 -0.601986D-03  0.132745D-02
     25 -0.105129D-02 -0.559027D-03  0.161031D-02  0.821408D-03 -0.112661D-02
     26  0.194045D-01 -0.100086D-01 -0.939589D-02 -0.304557D-02  0.606305D-02
     27  0.121474D-01 -0.502144D-02 -0.712600D-02 -0.221559D-02  0.432542D-02
     28  0.126822D-01 -0.735938D-02 -0.532284D-02 -0.162217D-02  0.360898D-02
     29  0.542515D-02 -0.237220D-02 -0.305295D-02 -0.792199D-03  0.187135D-02
     30 -0.290753D-02  0.225476D-02  0.652769D-03  0.778530D-03 -0.941537D-03
     31  0.473692D-02 -0.167770D-02 -0.305922D-02 -0.195548D-02  0.339765D-02
     32  0.434954D-02 -0.273242D-02 -0.161712D-02 -0.514438D-04  0.796096D-03
     33  0.119940D-01 -0.666488D-02 -0.532912D-02 -0.278545D-02  0.513529D-02
               21            22            23            24            25 
     21  0.730286D-01
     22 -0.211817D-02  0.233870D-01
     23 -0.108750D-02  0.144302D-01  0.203024D-01
     24 -0.725466D-03  0.153095D-03 -0.502608D-02  0.199018D-01
     25  0.305204D-03 -0.880370D-02  0.846095D-03  0.147226D-01  0.243724D-01
     26 -0.301748D-02  0.443864D-02 -0.320568D-02  0.194332D-02 -0.570100D-02
     27 -0.210982D-02  0.444550D-02 -0.315592D-02  0.249017D-02 -0.511125D-02
     28 -0.198681D-02 -0.451816D-02  0.266650D-02 -0.323585D-02  0.394880D-02
     29 -0.107915D-02 -0.451129D-02  0.271625D-02 -0.268900D-02  0.453855D-02
     30  0.163008D-03 -0.460854D-03  0.128894D-03  0.212679D-03  0.802427D-03
     31 -0.144217D-02 -0.432813D-03 -0.383057D-03  0.791381D-04  0.128894D-03
     32 -0.744652D-03 -0.467718D-03  0.791381D-04 -0.334177D-03  0.212679D-03
     33 -0.234983D-02 -0.439677D-03 -0.432813D-03 -0.467718D-03 -0.460854D-03
               26            27            28            29            30 
     26  0.852991D-02
     27  0.885597D-03  0.807025D-02
     28  0.885597D-03 -0.671583D-02  0.807025D-02
     29 -0.675872D-02  0.468826D-03  0.468826D-03  0.769637D-02
     30 -0.570100D-02  0.394880D-02 -0.511125D-02  0.453855D-02  0.243724D-01
     31 -0.320568D-02  0.266650D-02 -0.315592D-02  0.271625D-02  0.846095D-03
     32  0.194332D-02 -0.323585D-02  0.249017D-02 -0.268900D-02  0.147226D-01
     33  0.443864D-02 -0.451816D-02  0.444550D-02 -0.451129D-02 -0.880370D-02
               31            32            33 
     31  0.203024D-01
     32 -0.502608D-02  0.199018D-01
     33  0.144302D-01  0.153095D-03  0.233870D-01
 Leave Link  716 at Mon Jun  1 23:42:07 2020, MaxMem= 12884901888 cpu:               7.3 elap:               1.8
 (Enter /project/qslin/software/g16/l103.exe)

 GradGradGradGradGradGradGradGradGradGradGradGradGradGradGradGradGradGrad
 Berny optimization.
 Red2BG is reusing G-inverse.
 Internal  Forces:  Max     0.024923212 RMS     0.010388871
 Search for a local minimum.
 Step number   1 out of a maximum of   43
 All quantities printed in internal units (Hartrees-Bohrs-Radians)
 RMS Force = .10389D-01 SwitMx=.10000D-02 MixMth= 1
 Mixed Optimization -- RFO/linear search
 Second derivative matrix not updated -- analytic derivatives used.
 ITU=  0
     Eigenvalues ---   -0.00293   0.02486   0.02792   0.02976   0.03061
     Eigenvalues ---    0.04415   0.04418   0.10247   0.10248   0.10623
     Eigenvalues ---    0.11025   0.13063   0.14227   0.18540   0.21597
     Eigenvalues ---    0.38152   0.39599   0.39603   0.39661   0.39744
     Eigenvalues ---    0.39813   0.48236   0.56007   0.59376
 Eigenvalue     1 is  -2.93D-03 should be greater than     0.000000 Eigenvector:
                          D5        D6        D7        D8        D1
   1                    0.52440   0.48894   0.48894   0.45349   0.08073
                          D12       D3        D11       A7        A5
   1                    0.08073   0.06367   0.06367  -0.05976  -0.05976
 RFO step:  Lambda=-1.26576603D-02 EMin=-2.93025384D-03
 Linear search not attempted -- first point.
 Iteration  1 RMS(Cart)=  0.17353885 RMS(Int)=  0.05920278
 Iteration  2 RMS(Cart)=  0.09385401 RMS(Int)=  0.00397301
 Iteration  3 RMS(Cart)=  0.00526672 RMS(Int)=  0.00010947
 Iteration  4 RMS(Cart)=  0.00001035 RMS(Int)=  0.00010933
 Iteration  5 RMS(Cart)=  0.00000000 RMS(Int)=  0.00010933
 ITry= 1 IFail=0 DXMaxC= 6.04D-01 DCOld= 1.00D+10 DXMaxT= 3.00D-01 DXLimC= 3.00D+00 Rises=F
 ClnCor:  largest displacement from symmetrization is 1.46D-08 for atom     8.
 Variable       Old X    -DE/DX   Delta X   Delta X   Delta X     New X
                                 (Linear)    (Quad)   (Total)
    R1        2.56096  -0.01367   0.00000  -0.03014  -0.03014   2.53081
    R2        2.02201   0.01036   0.00000   0.03169   0.03169   2.05370
    R3        2.02201   0.01189   0.00000   0.02869   0.02869   2.05070
    R4        2.02201   0.01256   0.00000   0.03361   0.03361   2.05562
    R5        2.91018  -0.02492   0.00000  -0.12863  -0.12863   2.78155
    R6        2.56096  -0.01367   0.00000  -0.03014  -0.03014   2.53081
    R7        2.02201   0.01256   0.00000   0.03361   0.03361   2.05562
    R8        2.02201   0.01189   0.00000   0.02869   0.02869   2.05070
    R9        2.02201   0.01036   0.00000   0.03169   0.03169   2.05370
    A1        2.09440   0.00541   0.00000   0.04026   0.04025   2.13465
    A2        2.09440   0.00055   0.00000   0.01504   0.01502   2.10942
    A3        2.09440  -0.00596   0.00000  -0.05530  -0.05531   2.03908
    A4        2.09440  -0.00782   0.00000  -0.02990  -0.02997   2.06443
    A5        2.09440   0.02259   0.00000   0.11831   0.11825   2.21264
    A6        2.09440  -0.01477   0.00000  -0.08840  -0.08846   2.00594
    A7        2.09440   0.02259   0.00000   0.11831   0.11825   2.21264
    A8        2.09440  -0.01477   0.00000  -0.08840  -0.08846   2.00594
    A9        2.09440  -0.00782   0.00000  -0.02990  -0.02997   2.06443
   A10        2.09440   0.00055   0.00000   0.01504   0.01502   2.10942
   A11        2.09440   0.00541   0.00000   0.04026   0.04025   2.13465
   A12        2.09440  -0.00596   0.00000  -0.05530  -0.05531   2.03908
    D1        3.14159   0.00288   0.00000  -0.03411  -0.03426   3.10733
    D2        0.00000   0.00167   0.00000  -0.01326  -0.01311  -0.01311
    D3       -0.00000   0.00162   0.00000  -0.02521  -0.02536  -0.02536
    D4        3.14159   0.00040   0.00000  -0.00436  -0.00421   3.13739
    D5        0.35700   0.00306   0.00000  -0.38528  -0.38497  -0.02797
    D6       -2.78459   0.00184   0.00000  -0.36443  -0.36443   3.13416
    D7       -2.78459   0.00184   0.00000  -0.36443  -0.36443   3.13416
    D8        0.35700   0.00063   0.00000  -0.34358  -0.34389   0.01311
    D9        3.14159   0.00040   0.00000  -0.00436  -0.00421   3.13739
   D10        0.00000   0.00167   0.00000  -0.01326  -0.01311  -0.01311
   D11       -0.00000   0.00162   0.00000  -0.02521  -0.02536  -0.02536
   D12       -3.14159   0.00288   0.00000  -0.03411  -0.03426   3.10733
         Item               Value     Threshold  Converged?
 Maximum Force            0.024923     0.000450     NO 
 RMS     Force            0.010389     0.000300     NO 
 Maximum Displacement     0.603657     0.001800     NO 
 RMS     Displacement     0.251490     0.001200     NO 
 Predicted change in Energy=-7.518012D-03
 Lowest energy point so far.  Saving SCF results.
 GradGradGradGradGradGradGradGradGradGradGradGradGradGradGradGradGradGrad

 Leave Link  103 at Mon Jun  1 23:42:08 2020, MaxMem= 12884901888 cpu:               4.3 elap:               0.4
 (Enter /project/qslin/software/g16/l202.exe)
                          Input orientation:                          
 ---------------------------------------------------------------------
 Center     Atomic      Atomic             Coordinates (Angstroms)
 Number     Number       Type             X           Y           Z
 ---------------------------------------------------------------------
      1          6           0        0.011366   -1.537773    0.522711
      2          6           0       -0.001741   -0.735964   -0.549910
      3          1           0        0.038518   -1.149879    1.537537
      4          1           0        0.003331   -2.617157    0.410964
      5          1           0        0.003640   -1.194523   -1.536305
      6          6           0        0.001741    0.735964   -0.549910
      7          6           0       -0.011366    1.537773    0.522711
      8          1           0       -0.003640    1.194523   -1.536305
      9          1           0       -0.003331    2.617157    0.410964
     10          1           0       -0.038518    1.149879    1.537537
 ---------------------------------------------------------------------
                    Distance matrix (angstroms):
                    1          2          3          4          5
     1  C    0.000000
     2  C    1.339248   0.000000
     3  H    1.086770   2.128469   0.000000
     4  H    1.085183   2.112390   1.850219   0.000000
     5  H    2.087446   1.087787   3.074364   2.411586   0.000000
     6  C    2.514059   1.471933   2.813395   3.488081   2.167893
     7  C    3.075631   2.514059   2.873296   4.156459   3.421289
     8  H    3.421289   2.167893   3.866070   4.280282   2.389057
     9  H    4.156459   3.488081   3.932108   5.234319   4.280282
    10  H    2.873296   2.813395   2.301047   3.932108   3.866070
                    6          7          8          9         10
     6  C    0.000000
     7  C    1.339248   0.000000
     8  H    1.087787   2.087446   0.000000
     9  H    2.112390   1.085183   2.411586   0.000000
    10  H    2.128469   1.086770   3.074364   1.850219   0.000000
 Stoichiometry    C4H6
 Framework group  C2[X(C4H6)]
 Deg. of freedom    13
 Full point group                 C2      NOp   2
 RotChk:  IX=0 Diff= 3.05D-01
 Largest Abelian subgroup         C2      NOp   2
 Largest concise Abelian subgroup C2      NOp   2
                         Standard orientation:                         
 ---------------------------------------------------------------------
 Center     Atomic      Atomic             Coordinates (Angstroms)
 Number     Number       Type             X           Y           Z
 ---------------------------------------------------------------------
      1          6           0       -0.013769    1.537754   -0.506111
      2          6           0       -0.013769    0.735837    0.566510
      3          1           0        0.019719    1.150355   -1.520937
      4          1           0       -0.039446    2.616862   -0.394364
      5          1           0       -0.015884    1.194423    1.552905
      6          6           0        0.013769   -0.735837    0.566510
      7          6           0        0.013769   -1.537754   -0.506111
      8          1           0        0.015884   -1.194423    1.552905
      9          1           0        0.039446   -2.616862   -0.394364
     10          1           0       -0.019719   -1.150355   -1.520937
 ---------------------------------------------------------------------
 Rotational constants (GHZ):          21.3413716           5.6715955           4.4810640
 Leave Link  202 at Mon Jun  1 23:42:08 2020, MaxMem= 12884901888 cpu:               0.2 elap:               0.0
 (Enter /project/qslin/software/g16/l301.exe)
 Standard basis: 6-31+G(2df,p) (6D, 7F)
 Ernie: Thresh=  0.10000D-02 Tol=  0.10000D-05 Strict=F.
 There are    85 symmetry adapted cartesian basis functions of A   symmetry.
 There are    85 symmetry adapted cartesian basis functions of B   symmetry.
 There are    79 symmetry adapted basis functions of A   symmetry.
 There are    79 symmetry adapted basis functions of B   symmetry.
   158 basis functions,   234 primitive gaussians,   170 cartesian basis functions
    15 alpha electrons       15 beta electrons
       nuclear repulsion energy       104.6034482190 Hartrees.
 IExCor= 3226 DFT=T Ex+Corr=BMK ExCW=0 ScaHFX=  0.420000
 ScaDFX=  1.000000  1.000000  1.000000  1.000000 ScalE2=  1.000000  1.000000
 IRadAn=      5 IRanWt=     -1 IRanGd=            0 ICorTp=0 IEmpDi=  4
 NAtoms=   10 NActive=   10 NUniq=    5 SFac= 4.00D+00 NAtFMM=   60 NAOKFM=F Big=F
 Integral buffers will be    131072 words long.
 Raffenetti 2 integral format.
 Two-electron integral symmetry is turned on.
 Leave Link  301 at Mon Jun  1 23:42:08 2020, MaxMem= 12884901888 cpu:               1.1 elap:               0.1
 (Enter /project/qslin/software/g16/l302.exe)
 NPDir=0 NMtPBC=     1 NCelOv=     1 NCel=       1 NClECP=     1 NCelD=      1
         NCelK=      1 NCelE2=     1 NClLst=     1 CellRange=     0.0.
 One-electron integrals computed using PRISM.
 One-electron integral symmetry used in STVInt
 NBasis=   158 RedAO= T EigKep=  3.27D-05  NBF=    79    79
 NBsUse=   158 1.00D-06 EigRej= -1.00D+00 NBFU=    79    79
 Precomputing XC quadrature grid using
 IXCGrd= 4 IRadAn=           5 IRanWt=          -1 IRanGd=           0 AccXCQ= 0.00D+00.
 Generated NRdTot=       0 NPtTot=           0 NUsed=           0 NTot=          32
 NSgBfM=   170   170   170   170   170 MxSgAt=    10 MxSgA2=    10.
 Leave Link  302 at Mon Jun  1 23:42:09 2020, MaxMem= 12884901888 cpu:               3.1 elap:               0.2
 (Enter /project/qslin/software/g16/l303.exe)
 DipDrv:  MaxL=1.
 Leave Link  303 at Mon Jun  1 23:42:10 2020, MaxMem= 12884901888 cpu:               0.5 elap:               0.1
 (Enter /project/qslin/software/g16/l401.exe)
 Initial guess from the checkpoint file:  "DA-R.chk"
 B after Tr=     0.000000    0.000000   -0.000000
         Rot=    0.994720    0.000000    0.000000   -0.102625 Ang= -11.78 deg.
 Guess basis will be translated and rotated to current coordinates.
 JPrj=2 DoOrth=T DoCkMO=T.
 Initial guess orbital symmetries:
       Occupied  (A) (B) (B) (A) (A) (B) (A) (B) (A) (A) (B) (B)
                 (A) (B) (A)
       Virtual   (B) (A) (A) (B) (B) (A) (A) (B) (A) (B) (A) (A)
                 (B) (B) (A) (A) (B) (B) (A) (A) (B) (B) (B) (A)
                 (A) (B) (B) (A) (B) (A) (B) (A) (B) (A) (A) (B)
                 (B) (A) (B) (A) (B) (A) (B) (A) (A) (B) (B) (A)
                 (B) (A) (B) (B) (A) (A) (B) (A) (B) (A) (B) (A)
                 (B) (A) (A) (B) (B) (A) (A) (B) (B) (B) (A) (B)
                 (A) (A) (A) (B) (B) (A) (B) (A) (A) (B) (A) (B)
                 (A) (B) (B) (A) (B) (A) (B) (A) (A) (B) (B) (A)
                 (B) (A) (B) (A) (B) (A) (A) (B) (A) (B) (B) (A)
                 (B) (B) (B) (A) (A) (A) (A) (B) (A) (B) (B) (A)
                 (B) (A) (B) (A) (B) (A) (B) (A) (A) (B) (B) (A)
                 (B) (A) (A) (B) (B) (A) (B) (A) (B) (A) (B)
 The electronic state of the initial guess is 1-A.
 Generating alternative initial guess.
 ExpMin= 4.38D-02 ExpMax= 3.05D+03 ExpMxC= 4.57D+02 IAcc=2 IRadAn=         4 AccDes= 0.00D+00
 Harris functional with IExCor= 1009 and IRadAn=       4 diagonalized for initial guess.
 HarFok:  IExCor= 1009 AccDes= 0.00D+00 IRadAn=         4 IDoV= 1 UseB2=F ITyADJ=14
 ICtDFT=  3500011 ScaDFX=  1.000000  1.000000  1.000000  1.000000
 FoFCou: FMM=F IPFlag=           0 FMFlag=      100000 FMFlg1=           0
         NFxFlg=           0 DoJE=T BraDBF=F KetDBF=T FulRan=T
         wScrn=  0.000000 ICntrl=       500 IOpCl=  0 I1Cent=   200000004 NGrid=           0
         NMat0=    1 NMatS0=      1 NMatT0=    0 NMatD0=    1 NMtDS0=    0 NMtDT0=    0
 Petite list used in FoFCou.
 Harris En= -155.895217473068    
 Leave Link  401 at Mon Jun  1 23:42:11 2020, MaxMem= 12884901888 cpu:               6.1 elap:               0.4
 (Enter /project/qslin/software/g16/l502.exe)
 Keep R1 ints in memory in symmetry-blocked form, NReq=118375835.
 FoFCou: FMM=F IPFlag=           0 FMFlag=           0 FMFlg1=           0
         NFxFlg=           0 DoJE=F BraDBF=F KetDBF=F FulRan=T
         wScrn=  0.000000 ICntrl=       600 IOpCl=  0 I1Cent=           0 NGrid=           0
         NMat0=    1 NMatS0=  12561 NMatT0=    0 NMatD0=    1 NMtDS0=    0 NMtDT0=    0
 Petite list used in FoFCou.
 Closed shell SCF:
 Using DIIS extrapolation, IDIIS=  1040.
 NGot= 12884901888 LenX= 12845360555 LenY= 12845331214
 Requested convergence on RMS density matrix=1.00D-08 within 128 cycles.
 Requested convergence on MAX density matrix=1.00D-06.
 Requested convergence on             energy=1.00D-06.
 No special actions if energy rises.

 Cycle   1  Pass 1  IDiag  1:
 E= -155.826987473523    
 DIIS: error= 1.20D-02 at cycle   1 NSaved=   1.
 NSaved= 1 IEnMin= 1 EnMin= -155.826987473523     IErMin= 1 ErrMin= 1.20D-02
 ErrMax= 1.20D-02  0.00D+00 EMaxC= 1.00D-01 BMatC= 2.71D-02 BMatP= 2.71D-02
 IDIUse=3 WtCom= 8.80D-01 WtEn= 1.20D-01
 Coeff-Com:  0.100D+01
 Coeff-En:   0.100D+01
 Coeff:      0.100D+01
 Recover alternate guess density for next cycle.
 RMSDP=6.00D-03 MaxDP=2.01D-01              OVMax= 0.00D+00

 Cycle   2  Pass 1  IDiag  1:
 E= -155.748100462869     Delta-E=        0.078887010655 Rises=F Damp=F
 Switch densities from cycles 1 and 2 for lowest energy.
 DIIS: error= 2.67D-02 at cycle   2 NSaved=   2.
 NSaved= 2 IEnMin= 1 EnMin= -155.826987473523     IErMin= 1 ErrMin= 1.20D-02
 ErrMax= 2.67D-02  0.00D+00 EMaxC= 1.00D+00 BMatC= 1.18D-01 BMatP= 2.71D-02
 IDIUse=1 WtCom= 1.00D+00 WtEn= 0.00D+00
 Coeff-Com:  0.810D+00 0.190D+00
 Coeff:      0.810D+00 0.190D+00
 Gap=     0.348 Goal=   None    Shift=    0.000
 RMSDP=2.68D-03 MaxDP=5.31D-02 DE= 7.89D-02 OVMax= 1.07D-01

 Cycle   3  Pass 1  IDiag  1:
 E= -155.875541270175     Delta-E=       -0.127440807307 Rises=F Damp=F
 DIIS: error= 3.96D-03 at cycle   3 NSaved=   3.
 NSaved= 3 IEnMin= 3 EnMin= -155.875541270175     IErMin= 3 ErrMin= 3.96D-03
 ErrMax= 3.96D-03  0.00D+00 EMaxC= 1.00D+00 BMatC= 3.59D-03 BMatP= 2.71D-02
 IDIUse=1 WtCom= 1.00D+00 WtEn= 0.00D+00
 Coeff-Com: -0.779D-01 0.141D+00 0.936D+00
 Coeff:     -0.779D-01 0.141D+00 0.936D+00
 Gap=     0.250 Goal=   None    Shift=    0.000
 RMSDP=7.22D-04 MaxDP=1.55D-02 DE=-1.27D-01 OVMax= 3.08D-02

 Cycle   4  Pass 1  IDiag  1:
 E= -155.880421207949     Delta-E=       -0.004879937774 Rises=F Damp=F
 DIIS: error= 1.59D-03 at cycle   4 NSaved=   4.
 NSaved= 4 IEnMin= 4 EnMin= -155.880421207949     IErMin= 4 ErrMin= 1.59D-03
 ErrMax= 1.59D-03  0.00D+00 EMaxC= 1.00D+00 BMatC= 2.08D-04 BMatP= 3.59D-03
 IDIUse=1 WtCom= 1.00D+00 WtEn= 0.00D+00
 Coeff-Com: -0.369D-01 0.308D-01 0.267D+00 0.739D+00
 Coeff:     -0.369D-01 0.308D-01 0.267D+00 0.739D+00
 Gap=     0.249 Goal=   None    Shift=    0.000
 RMSDP=1.87D-04 MaxDP=4.07D-03 DE=-4.88D-03 OVMax= 9.87D-03

 Cycle   5  Pass 1  IDiag  1:
 E= -155.880552254974     Delta-E=       -0.000131047025 Rises=F Damp=F
 DIIS: error= 1.23D-03 at cycle   5 NSaved=   5.
 NSaved= 5 IEnMin= 5 EnMin= -155.880552254974     IErMin= 5 ErrMin= 1.23D-03
 ErrMax= 1.23D-03  0.00D+00 EMaxC= 1.00D+00 BMatC= 1.19D-04 BMatP= 2.08D-04
 IDIUse=1 WtCom= 1.00D+00 WtEn= 0.00D+00
 Coeff-Com: -0.692D-02-0.569D-02 0.299D-02 0.446D+00 0.564D+00
 Coeff:     -0.692D-02-0.569D-02 0.299D-02 0.446D+00 0.564D+00
 Gap=     0.249 Goal=   None    Shift=    0.000
 RMSDP=1.13D-04 MaxDP=3.27D-03 DE=-1.31D-04 OVMax= 4.73D-03

 Cycle   6  Pass 1  IDiag  1:
 E= -155.880682845765     Delta-E=       -0.000130590791 Rises=F Damp=F
 DIIS: error= 1.41D-04 at cycle   6 NSaved=   6.
 NSaved= 6 IEnMin= 6 EnMin= -155.880682845765     IErMin= 6 ErrMin= 1.41D-04
 ErrMax= 1.41D-04  0.00D+00 EMaxC= 1.00D+00 BMatC= 1.74D-06 BMatP= 1.19D-04
 IDIUse=1 WtCom= 1.00D+00 WtEn= 0.00D+00
 Coeff-Com:  0.418D-03-0.195D-02-0.184D-01 0.266D-01 0.103D+00 0.890D+00
 Coeff:      0.418D-03-0.195D-02-0.184D-01 0.266D-01 0.103D+00 0.890D+00
 Gap=     0.250 Goal=   None    Shift=    0.000
 RMSDP=2.38D-05 MaxDP=6.14D-04 DE=-1.31D-04 OVMax= 1.06D-03

 Cycle   7  Pass 1  IDiag  1:
 E= -155.880685833836     Delta-E=       -0.000002988071 Rises=F Damp=F
 DIIS: error= 2.89D-05 at cycle   7 NSaved=   7.
 NSaved= 7 IEnMin= 7 EnMin= -155.880685833836     IErMin= 7 ErrMin= 2.89D-05
 ErrMax= 2.89D-05  0.00D+00 EMaxC= 1.00D+00 BMatC= 9.67D-08 BMatP= 1.74D-06
 IDIUse=1 WtCom= 1.00D+00 WtEn= 0.00D+00
 Coeff-Com:  0.544D-03 0.160D-03-0.407D-02-0.313D-01-0.257D-01 0.147D+00
 Coeff-Com:  0.913D+00
 Coeff:      0.544D-03 0.160D-03-0.407D-02-0.313D-01-0.257D-01 0.147D+00
 Coeff:      0.913D+00
 Gap=     0.250 Goal=   None    Shift=    0.000
 RMSDP=7.41D-06 MaxDP=1.88D-04 DE=-2.99D-06 OVMax= 3.44D-04

 Cycle   8  Pass 1  IDiag  1:
 E= -155.880686030475     Delta-E=       -0.000000196639 Rises=F Damp=F
 DIIS: error= 4.71D-06 at cycle   8 NSaved=   8.
 NSaved= 8 IEnMin= 8 EnMin= -155.880686030475     IErMin= 8 ErrMin= 4.71D-06
 ErrMax= 4.71D-06  0.00D+00 EMaxC= 1.00D+00 BMatC= 2.36D-09 BMatP= 9.67D-08
 IDIUse=1 WtCom= 1.00D+00 WtEn= 0.00D+00
 Coeff-Com:  0.809D-05 0.428D-04 0.467D-03-0.168D-02-0.516D-02-0.300D-01
 Coeff-Com:  0.347D-01 0.100D+01
 Coeff:      0.809D-05 0.428D-04 0.467D-03-0.168D-02-0.516D-02-0.300D-01
 Coeff:      0.347D-01 0.100D+01
 Gap=     0.250 Goal=   None    Shift=    0.000
 RMSDP=1.18D-06 MaxDP=1.75D-05 DE=-1.97D-07 OVMax= 5.37D-05

 Cycle   9  Pass 1  IDiag  1:
 E= -155.880686035437     Delta-E=       -0.000000004962 Rises=F Damp=F
 DIIS: error= 1.06D-06 at cycle   9 NSaved=   9.
 NSaved= 9 IEnMin= 9 EnMin= -155.880686035437     IErMin= 9 ErrMin= 1.06D-06
 ErrMax= 1.06D-06  0.00D+00 EMaxC= 1.00D+00 BMatC= 1.15D-10 BMatP= 2.36D-09
 IDIUse=1 WtCom= 1.00D+00 WtEn= 0.00D+00
 Coeff-Com: -0.209D-04-0.553D-05 0.254D-03 0.110D-02 0.586D-03-0.909D-02
 Coeff-Com: -0.367D-01 0.105D+00 0.939D+00
 Coeff:     -0.209D-04-0.553D-05 0.254D-03 0.110D-02 0.586D-03-0.909D-02
 Coeff:     -0.367D-01 0.105D+00 0.939D+00
 Gap=     0.250 Goal=   None    Shift=    0.000
 RMSDP=2.48D-07 MaxDP=6.97D-06 DE=-4.96D-09 OVMax= 5.69D-06

 Cycle  10  Pass 1  IDiag  1:
 E= -155.880686035627     Delta-E=       -0.000000000190 Rises=F Damp=F
 DIIS: error= 1.64D-07 at cycle  10 NSaved=  10.
 NSaved=10 IEnMin=10 EnMin= -155.880686035627     IErMin=10 ErrMin= 1.64D-07
 ErrMax= 1.64D-07  0.00D+00 EMaxC= 1.00D+00 BMatC= 2.71D-12 BMatP= 1.15D-10
 IDIUse=1 WtCom= 1.00D+00 WtEn= 0.00D+00
 Coeff-Com: -0.134D-05-0.157D-05-0.701D-05 0.915D-04 0.210D-03 0.810D-03
 Coeff-Com: -0.227D-02-0.310D-01 0.101D-01 0.102D+01
 Coeff:     -0.134D-05-0.157D-05-0.701D-05 0.915D-04 0.210D-03 0.810D-03
 Coeff:     -0.227D-02-0.310D-01 0.101D-01 0.102D+01
 Gap=     0.250 Goal=   None    Shift=    0.000
 RMSDP=3.50D-08 MaxDP=8.57D-07 DE=-1.90D-10 OVMax= 1.33D-06

 Cycle  11  Pass 1  IDiag  1:
 E= -155.880686035633     Delta-E=       -0.000000000006 Rises=F Damp=F
 DIIS: error= 3.07D-08 at cycle  11 NSaved=  11.
 NSaved=11 IEnMin=11 EnMin= -155.880686035633     IErMin=11 ErrMin= 3.07D-08
 ErrMax= 3.07D-08  0.00D+00 EMaxC= 1.00D+00 BMatC= 9.37D-14 BMatP= 2.71D-12
 IDIUse=1 WtCom= 1.00D+00 WtEn= 0.00D+00
 Coeff-Com:  0.651D-06 0.296D-06-0.914D-05-0.366D-04-0.190D-04 0.348D-03
 Coeff-Com:  0.136D-02-0.458D-02-0.355D-01 0.206D-01 0.102D+01
 Coeff:      0.651D-06 0.296D-06-0.914D-05-0.366D-04-0.190D-04 0.348D-03
 Coeff:      0.136D-02-0.458D-02-0.355D-01 0.206D-01 0.102D+01
 Gap=     0.250 Goal=   None    Shift=    0.000
 RMSDP=7.01D-09 MaxDP=1.23D-07 DE=-6.42D-12 OVMax= 2.76D-07

 SCF Done:  E(RBMK) =  -155.880686036     A.U. after   11 cycles
            NFock= 11  Conv=0.70D-08     -V/T= 2.0096
 KE= 1.544036481610D+02 PE=-5.694518580580D+02 EE= 1.545640756423D+02
 Leave Link  502 at Mon Jun  1 23:42:14 2020, MaxMem= 12884901888 cpu:              53.2 elap:               3.7
 (Enter /project/qslin/software/g16/l701.exe)
 ... and contract with generalized density number  0.
 Compute integral first derivatives.
 Leave Link  701 at Mon Jun  1 23:42:15 2020, MaxMem= 12884901888 cpu:               3.7 elap:               0.4
 (Enter /project/qslin/software/g16/l702.exe)
 L702 exits ... SP integral derivatives will be done elsewhere.
 Leave Link  702 at Mon Jun  1 23:42:15 2020, MaxMem= 12884901888 cpu:               0.3 elap:               0.0
 (Enter /project/qslin/software/g16/l703.exe)
 Integral derivatives from FoFJK, PRISM(SPDF).
 Compute integral first derivatives, UseDBF=F ICtDFT=           0.
 Calling FoFJK, ICntrl=      2127 FMM=F ISym2X=1 I1Cent= 0 IOpClX= 0 NMat=1 NMatS=1 NMatT=0.
 FoFJK:  IHMeth= 1 ICntrl=    2127 DoSepK=F KAlg= 0 I1Cent=           0 FoldK=F
[...]
                 (B) (A) (B) (A) (B) (A) (B) (A) (A) (B) (A) (B)
                 (B) (B) (A) (B) (A) (A) (B) (A) (B) (A) (B) (A)
                 (B) (A) (A) (B) (B) (B) (A) (A) (B) (B) (A) (B)
                 (A) (A) (B) (B) (A) (A) (B) (A) (B) (A) (B) (A)
                 (A) (B) (B) (A) (B) (A) (B) (A) (A) (A) (B) (B)
                 (A) (B) (A) (B) (A) (B) (A) (B) (B) (A) (B) (A)
                 (A) (B) (A) (B) (B) (B) (A) (B) (B) (A) (A) (B)
                 (A) (A) (A) (B) (B) (A) (B) (A) (B) (B) (A) (A)
                 (B) (A) (B) (A) (B) (A) (B) (A) (A) (A) (B) (B)
                 (B) (A) (B) (A) (A) (B) (A) (B) (B) (A) (B) (A)
                 (B) (A) (A) (A) (A) (A) (A) (A) (A) (A) (A) (A)
                 (A) (A) (A) (A) (A) (A) (A) (A) (A) (A) (A) (A)
                 (A) (A) (A) (A) (A) (A) (A) (A) (A) (A) (A) (A)
                 (A) (A) (A) (A) (A) (A) (A) (A) (A) (A) (A) (A)
                 (A) (A) (A) (A) (A) (A) (A) (A) (A) (A) (A) (A)
                 (A) (A) (A) (A) (A) (A) (A) (A) (A) (A) (A) (A)
                 (A) (A) (A) (A) (A) (A) (B) (B) (B) (B) (B) (B)
                 (B) (B) (B) (B) (B) (B) (B) (B) (B) (B) (B) (B)
                 (B) (B) (B) (B) (B) (B) (B) (B) (B) (B) (B) (B)
                 (B) (B) (B) (B) (B) (B) (B) (B) (B) (B) (B) (B)
                 (B) (B) (B) (B) (B) (B) (B) (B) (B) (B) (B) (B)
                 (B) (B) (B) (B) (B) (B) (B) (B) (B) (B) (B) (B)
                 (B) (B) (B) (B) (B) (B) (B) (B) (B) (B) (B)
 The electronic state of the initial guess is 1-A.
 Leave Link  401 at Mon Jun  1 23:44:41 2020, MaxMem= 12884901888 cpu:               2.6 elap:               0.2
 (Enter /project/qslin/software/g16/l502.exe)
 Keep R1 ints in memory in symmetry-blocked form, NReq=2130919021.
 FoFCou: FMM=F IPFlag=           0 FMFlag=           0 FMFlg1=           0
         NFxFlg=           0 DoJE=F BraDBF=F KetDBF=F FulRan=T
         wScrn=  0.000000 ICntrl=       600 IOpCl=  0 I1Cent=           0 NGrid=           0
         NMat0=    1 NMatS0=  53301 NMatT0=    0 NMatD0=    1 NMtDS0=    0 NMtDT0=    0
 Petite list used in FoFCou.
 Closed shell SCF:
 Using DIIS extrapolation, IDIIS=  1040.
 NGot= 12884901888 LenX= 12174192879 LenY= 12174038774
 Requested convergence on RMS density matrix=1.00D-08 within 128 cycles.
 Requested convergence on MAX density matrix=1.00D-06.
 Requested convergence on             energy=1.00D-06.
 No special actions if energy rises.

 Cycle   1  Pass 1  IDiag  1:
 E= -154.977758592452    
 DIIS: error= 7.09D-03 at cycle   1 NSaved=   1.
 NSaved= 1 IEnMin= 1 EnMin= -154.977758592452     IErMin= 1 ErrMin= 7.09D-03
 ErrMax= 7.09D-03  0.00D+00 EMaxC= 1.00D-01 BMatC= 1.16D-02 BMatP= 1.16D-02
 IDIUse=3 WtCom= 9.29D-01 WtEn= 7.09D-02
 Coeff-Com:  0.100D+01
 Coeff-En:   0.100D+01
 Coeff:      0.100D+01
 Gap=     0.390 Goal=   None    Shift=    0.000
 GapD=    0.390 DampG=1.000 DampE=1.000 DampFc=1.0000 IDamp=-1.
 RMSDP=8.27D-04 MaxDP=4.06D-02              OVMax= 5.73D-03

 Cycle   2  Pass 1  IDiag  1:
 E= -154.981115857243     Delta-E=       -0.003357264791 Rises=F Damp=F
 DIIS: error= 3.55D-04 at cycle   2 NSaved=   2.
 NSaved= 2 IEnMin= 2 EnMin= -154.981115857243     IErMin= 2 ErrMin= 3.55D-04
 ErrMax= 3.55D-04  0.00D+00 EMaxC= 1.00D-01 BMatC= 5.08D-05 BMatP= 1.16D-02
 IDIUse=3 WtCom= 9.96D-01 WtEn= 3.55D-03
 Coeff-Com: -0.603D-01 0.106D+01
 Coeff-En:   0.000D+00 0.100D+01
 Coeff:     -0.601D-01 0.106D+01
 Gap=     0.382 Goal=   None    Shift=    0.000
 RMSDP=7.26D-05 MaxDP=3.28D-03 DE=-3.36D-03 OVMax= 9.78D-04

 Cycle   3  Pass 1  IDiag  1:
 E= -154.981139732849     Delta-E=       -0.000023875605 Rises=F Damp=F
 DIIS: error= 7.04D-05 at cycle   3 NSaved=   3.
 NSaved= 3 IEnMin= 3 EnMin= -154.981139732849     IErMin= 3 ErrMin= 7.04D-05
 ErrMax= 7.04D-05  0.00D+00 EMaxC= 1.00D-01 BMatC= 4.60D-07 BMatP= 5.08D-05
 IDIUse=1 WtCom= 1.00D+00 WtEn= 0.00D+00
 Coeff-Com: -0.158D-02 0.485D-02 0.997D+00
 Coeff:     -0.158D-02 0.485D-02 0.997D+00
 Gap=     0.383 Goal=   None    Shift=    0.000
 RMSDP=5.72D-06 MaxDP=1.62D-04 DE=-2.39D-05 OVMax= 1.87D-04

 Cycle   4  Pass 1  IDiag  1:
 E= -154.981140140502     Delta-E=       -0.000000407654 Rises=F Damp=F
 DIIS: error= 1.94D-05 at cycle   4 NSaved=   4.
 NSaved= 4 IEnMin= 4 EnMin= -154.981140140502     IErMin= 4 ErrMin= 1.94D-05
 ErrMax= 1.94D-05  0.00D+00 EMaxC= 1.00D-01 BMatC= 5.55D-08 BMatP= 4.60D-07
 IDIUse=1 WtCom= 1.00D+00 WtEn= 0.00D+00
 Coeff-Com:  0.156D-02-0.318D-01 0.225D+00 0.805D+00
 Coeff:      0.156D-02-0.318D-01 0.225D+00 0.805D+00
 Gap=     0.383 Goal=   None    Shift=    0.000
 RMSDP=1.00D-06 MaxDP=2.55D-05 DE=-4.08D-07 OVMax= 7.89D-05

 Cycle   5  Pass 1  IDiag  1:
 E= -154.981140199210     Delta-E=       -0.000000058708 Rises=F Damp=F
 DIIS: error= 2.53D-06 at cycle   5 NSaved=   5.
 NSaved= 5 IEnMin= 5 EnMin= -154.981140199210     IErMin= 5 ErrMin= 2.53D-06
 ErrMax= 2.53D-06  0.00D+00 EMaxC= 1.00D-01 BMatC= 1.13D-09 BMatP= 5.55D-08
 IDIUse=1 WtCom= 1.00D+00 WtEn= 0.00D+00
 Coeff-Com:  0.192D-04 0.200D-03-0.266D-01-0.256D-02 0.103D+01
 Coeff:      0.192D-04 0.200D-03-0.266D-01-0.256D-02 0.103D+01
 Gap=     0.383 Goal=   None    Shift=    0.000
 RMSDP=3.08D-07 MaxDP=7.93D-06 DE=-5.87D-08 OVMax= 1.56D-05

 Cycle   6  Pass 1  IDiag  1:
 E= -154.981140200871     Delta-E=       -0.000000001661 Rises=F Damp=F
 DIIS: error= 1.44D-06 at cycle   6 NSaved=   6.
 NSaved= 6 IEnMin= 6 EnMin= -154.981140200871     IErMin= 6 ErrMin= 1.44D-06
 ErrMax= 1.44D-06  0.00D+00 EMaxC= 1.00D-01 BMatC= 2.12D-10 BMatP= 1.13D-09
 IDIUse=1 WtCom= 1.00D+00 WtEn= 0.00D+00
 Coeff-Com: -0.107D-03 0.235D-02-0.242D-01-0.569D-01 0.278D+00 0.801D+00
 Coeff:     -0.107D-03 0.235D-02-0.242D-01-0.569D-01 0.278D+00 0.801D+00
 Gap=     0.383 Goal=   None    Shift=    0.000
 RMSDP=6.97D-08 MaxDP=1.87D-06 DE=-1.66D-09 OVMax= 6.21D-06

 Cycle   7  Pass 1  IDiag  1:
 E= -154.981140201143     Delta-E=       -0.000000000272 Rises=F Damp=F
 DIIS: error= 3.51D-07 at cycle   7 NSaved=   7.
 NSaved= 7 IEnMin= 7 EnMin= -154.981140201143     IErMin= 7 ErrMin= 3.51D-07
 ErrMax= 3.51D-07  0.00D+00 EMaxC= 1.00D-01 BMatC= 1.31D-11 BMatP= 2.12D-10
 IDIUse=1 WtCom= 1.00D+00 WtEn= 0.00D+00
 Coeff-Com: -0.707D-05 0.968D-04 0.114D-02-0.178D-02-0.846D-01 0.608D-01
 Coeff-Com:  0.102D+01
 Coeff:     -0.707D-05 0.968D-04 0.114D-02-0.178D-02-0.846D-01 0.608D-01
 Coeff:      0.102D+01
 Gap=     0.383 Goal=   None    Shift=    0.000
 RMSDP=2.62D-08 MaxDP=6.23D-07 DE=-2.72D-10 OVMax= 2.43D-06

 Cycle   8  Pass 1  IDiag  1:
 E= -154.981140201173     Delta-E=       -0.000000000030 Rises=F Damp=F
 DIIS: error= 1.19D-07 at cycle   8 NSaved=   8.
 NSaved= 8 IEnMin= 8 EnMin= -154.981140201173     IErMin= 8 ErrMin= 1.19D-07
 ErrMax= 1.19D-07  0.00D+00 EMaxC= 1.00D-01 BMatC= 7.66D-13 BMatP= 1.31D-11
 IDIUse=1 WtCom= 1.00D+00 WtEn= 0.00D+00
 Coeff-Com:  0.845D-05-0.182D-03 0.180D-02 0.470D-02-0.193D-01-0.662D-01
 Coeff-Com: -0.440D-01 0.112D+01
 Coeff:      0.845D-05-0.182D-03 0.180D-02 0.470D-02-0.193D-01-0.662D-01
 Coeff:     -0.440D-01 0.112D+01
 Gap=     0.383 Goal=   None    Shift=    0.000
 RMSDP=8.77D-09 MaxDP=2.24D-07 DE=-2.98D-11 OVMax= 7.82D-07

 SCF Done:  E(RHF) =  -154.981140201     A.U. after    8 cycles
            NFock=  8  Conv=0.88D-08     -V/T= 2.0019
 KE= 1.546935847415D+02 PE=-5.693045120336D+02 EE= 1.550722352357D+02
 Leave Link  502 at Mon Jun  1 23:44:56 2020, MaxMem= 12884901888 cpu:             181.9 elap:              15.4
 (Enter /project/qslin/software/g16/l601.exe)
 Copying SCF densities to generalized density rwf, IOpCl= 0 IROHF=0.

 **********************************************************************

            Population analysis using the SCF density.

 **********************************************************************

 Orbital symmetries:
       Occupied  (A) (B) (B) (A) (A) (B) (A) (B) (A) (A) (B) (B)
                 (A) (B) (A)
       Virtual   (A) (A) (B) (B) (B) (A) (B) (A) (A) (B) (A) (B)
                 (B) (A) (A) (B) (B) (A) (A) (B) (A) (B) (A) (B)
                 (A) (B) (A) (B) (B) (A) (A) (A) (B) (B) (B) (A)
                 (B) (A) (A) (B) (B) (A) (B) (A) (A) (B) (A) (B)
                 (B) (A) (B) (B) (A) (A) (A) (B) (B) (A) (B) (A)
                 (B) (B) (A) (A) (A) (B) (A) (B) (B) (A) (B) (B)
                 (A) (A) (B) (A) (B) (A) (B) (B) (A) (A) (B) (A)
                 (B) (A) (B) (A) (B) (A) (B) (B) (A) (B) (A) (B)
                 (A) (A) (B) (A) (A) (B) (B) (A) (A) (B) (A) (B)
                 (B) (B) (A) (B) (A) (B) (A) (A) (B) (A) (B) (A)
                 (B) (A) (A) (B) (A) (B) (A) (B) (B) (A) (B) (B)
                 (A) (A) (B) (A) (B) (A) (B) (A) (B) (A) (B) (A)
                 (A) (B) (A) (B) (A) (B) (B) (A) (B) (A) (A) (B)
                 (B) (A) (A) (B) (A) (B) (B) (B) (A) (B) (A) (A)
                 (B) (B) (A) (A) (B) (A) (A) (B) (A) (B) (A) (B)
                 (B) (B) (A) (A) (B) (A) (B) (A) (A) (B) (A) (B)
                 (A) (B) (B) (A) (B) (A) (B) (A) (B) (A) (B) (A)
                 (A) (B) (A) (B) (B) (B) (A) (A) (B) (A) (B) (B)
                 (A) (B) (A) (A) (B) (B) (A) (A) (B) (B) (A) (A)
                 (B) (A) (B) (A) (A) (B) (B) (A) (B) (A) (A) (B)
                 (A) (A) (B) (B) (A) (B) (B) (A) (B) (A) (B) (A)
                 (B) (A) (B) (A) (B) (A) (A) (B) (B) (A) (B) (A)
                 (B) (A) (B) (A) (B) (A) (A) (B) (B) (A) (B) (A)
                 (B) (B) (A) (A) (A) (B) (A) (B) (B) (A) (B) (A)
                 (B) (A) (A) (B) (A) (B) (A) (B) (A) (B) (B) (A)
                 (B) (A) (B) (A) (B) (A) (B) (B) (A) (B) (A)
 The electronic state is 1-A.
 Alpha  occ. eigenvalues --  -11.24079 -11.24003 -11.22959 -11.22959  -1.08814
 Alpha  occ. eigenvalues --   -0.99274  -0.84078  -0.72837  -0.66681  -0.60702
 Alpha  occ. eigenvalues --   -0.59113  -0.52549  -0.49628  -0.42539  -0.33108
 Alpha virt. eigenvalues --    0.05162   0.05508   0.05547   0.06598   0.07664
 Alpha virt. eigenvalues --    0.08727   0.09594   0.10138   0.11175   0.11204
 Alpha virt. eigenvalues --    0.12777   0.13444   0.14685   0.14825   0.19573
 Alpha virt. eigenvalues --    0.19988   0.21555   0.22448   0.23740   0.24963
 Alpha virt. eigenvalues --    0.27126   0.28410   0.29603   0.29962   0.33871
 Alpha virt. eigenvalues --    0.35879   0.38983   0.41164   0.43561   0.45789
 Alpha virt. eigenvalues --    0.46152   0.49078   0.49878   0.52141   0.53595
 Alpha virt. eigenvalues --    0.54005   0.56086   0.56405   0.58324   0.58617
 Alpha virt. eigenvalues --    0.60918   0.62537   0.63384   0.63531   0.64798
 Alpha virt. eigenvalues --    0.65974   0.66852   0.66918   0.74095   0.76592
 Alpha virt. eigenvalues --    0.77860   0.78345   0.80568   0.84950   0.86562
 Alpha virt. eigenvalues --    0.88465   0.92400   0.94532   0.99523   0.99930
 Alpha virt. eigenvalues --    1.05070   1.07541   1.07915   1.09094   1.14625
 Alpha virt. eigenvalues --    1.16907   1.17220   1.20794   1.22310   1.22531
 Alpha virt. eigenvalues --    1.27255   1.31625   1.32004   1.37830   1.38890
 Alpha virt. eigenvalues --    1.45210   1.47069   1.49973   1.53634   1.54663
 Alpha virt. eigenvalues --    1.55416   1.59498   1.61830   1.61855   1.66427
 Alpha virt. eigenvalues --    1.67544   1.68891   1.69711   1.71831   1.72581
 Alpha virt. eigenvalues --    1.74289   1.76389   1.77897   1.81207   1.83514
 Alpha virt. eigenvalues --    1.87702   1.88047   1.90040   1.94599   1.94684
 Alpha virt. eigenvalues --    1.98939   1.99010   1.99378   2.01250   2.03381
 Alpha virt. eigenvalues --    2.05086   2.05745   2.05842   2.07927   2.09803
 Alpha virt. eigenvalues --    2.10161   2.12923   2.15940   2.17261   2.20639
 Alpha virt. eigenvalues --    2.23011   2.26031   2.28224   2.28300   2.29032
 Alpha virt. eigenvalues --    2.33563   2.36733   2.37322   2.43177   2.43225
 Alpha virt. eigenvalues --    2.46242   2.48946   2.50796   2.53783   2.55330
 Alpha virt. eigenvalues --    2.61304   2.69818   2.74772   2.79109   2.81360
 Alpha virt. eigenvalues --    2.85021   2.93057   2.94684   2.98740   3.04581
 Alpha virt. eigenvalues --    3.08857   3.16998   3.27996   3.30466   3.35388
 Alpha virt. eigenvalues --    3.39678   3.44954   3.47914   3.51209   3.55483
 Alpha virt. eigenvalues --    3.61448   3.61958   3.65921   3.76047   3.79848
 Alpha virt. eigenvalues --    3.80036   3.84848   3.85892   3.97502   3.99709
 Alpha virt. eigenvalues --    4.01401   4.02625   4.05108   4.09809   4.10994
 Alpha virt. eigenvalues --    4.13718   4.20374   4.23963   4.24682   4.26809
 Alpha virt. eigenvalues --    4.29134   4.30036   4.39904   4.42839   4.45437
 Alpha virt. eigenvalues --    4.47631   4.49707   4.51592   4.56671   4.58142
 Alpha virt. eigenvalues --    4.65969   4.71293   4.72452   4.76479   4.80865
 Alpha virt. eigenvalues --    4.84344   4.91974   4.92360   4.94172   4.94331
 Alpha virt. eigenvalues --    4.98435   5.00475   5.02351   5.08317   5.11781
 Alpha virt. eigenvalues --    5.11928   5.17999   5.19424   5.21511   5.25526
 Alpha virt. eigenvalues --    5.30174   5.31969   5.32353   5.34157   5.38439
 Alpha virt. eigenvalues --    5.42789   5.44796   5.45306   5.52592   5.54095
 Alpha virt. eigenvalues --    5.55286   5.60512   5.61720   5.65879   5.68743
 Alpha virt. eigenvalues --    5.74960   5.75808   5.80831   5.87629   5.94671
 Alpha virt. eigenvalues --    5.94972   5.99285   6.03250   6.06843   6.10773
 Alpha virt. eigenvalues --    6.11583   6.14899   6.16087   6.19172   6.20231
 Alpha virt. eigenvalues --    6.20472   6.22241   6.27734   6.31961   6.35722
 Alpha virt. eigenvalues --    6.36254   6.37521   6.38827   6.41561   6.41658
 Alpha virt. eigenvalues --    6.45325   6.46875   6.48418   6.51345   6.53646
 Alpha virt. eigenvalues --    6.55525   6.57786   6.60564   6.61089   6.63647
 Alpha virt. eigenvalues --    6.70369   6.79527   6.82083   6.86817   6.92308
 Alpha virt. eigenvalues --    6.99514   7.06118   7.06584   7.12754   7.13441
 Alpha virt. eigenvalues --    7.20005   7.21794   7.24578   7.28219   7.33773
 Alpha virt. eigenvalues --    7.35569   7.37770   7.38023   7.42874   7.44820
 Alpha virt. eigenvalues --    7.50406   7.50519   7.55897   7.59475   7.61185
 Alpha virt. eigenvalues --    7.65630   7.65668   7.72887   7.76683   7.81842
 Alpha virt. eigenvalues --    7.93949   7.99725   8.01254   8.13165   8.18241
 Alpha virt. eigenvalues --    8.19561   8.40881   8.47586   8.61732   8.72530
 Alpha virt. eigenvalues --    8.75168   8.87669   8.97394   9.04998   9.13582
 Alpha virt. eigenvalues --    9.14817   9.37564   9.37753   9.64435   9.88781
 Alpha virt. eigenvalues --    9.99115  10.38980  10.39571  10.41349  10.46064
 Alpha virt. eigenvalues --   10.60492  10.63886  23.46147  23.58341  23.99856
 Alpha virt. eigenvalues --   24.37905
          Condensed to atoms (all electrons):
               1          2          3          4          5          6
     1  C    4.762133   0.693532   0.428416   0.427883  -0.029948  -0.078124
     2  C    0.693532   4.810832  -0.030983  -0.034101   0.427225   0.382323
     3  H    0.428416  -0.030983   0.540744  -0.033117   0.005022  -0.009143
     4  H    0.427883  -0.034101  -0.033117   0.522834  -0.006355   0.007096
     5  H   -0.029948   0.427225   0.005022  -0.006355   0.542146  -0.047341
     6  C   -0.078124   0.382323  -0.009143   0.007096  -0.047341   4.810832
     7  C   -0.011149  -0.078124   0.001473   0.000244   0.004527   0.693532
     8  H    0.004527  -0.047341   0.000118  -0.000323  -0.002153   0.427225
     9  H    0.000244   0.007096  -0.000110   0.000021  -0.000323  -0.034101
    10  H    0.001473  -0.009143   0.000285  -0.000110   0.000118  -0.030983
               7          8          9         10
     1  C   -0.011149   0.004527   0.000244   0.001473
     2  C   -0.078124  -0.047341   0.007096  -0.009143
     3  H    0.001473   0.000118  -0.000110   0.000285
     4  H    0.000244  -0.000323   0.000021  -0.000110
     5  H    0.004527  -0.002153  -0.000323   0.000118
     6  C    0.693532   0.427225  -0.034101  -0.030983
     7  C    4.762133  -0.029948   0.427883   0.428416
     8  H   -0.029948   0.542146  -0.006355   0.005022
     9  H    0.427883  -0.006355   0.522834  -0.033117
    10  H    0.428416   0.005022  -0.033117   0.540744
 Mulliken charges:
               1
     1  C   -0.198987
     2  C   -0.121316
     3  H    0.097296
     4  H    0.115928
     5  H    0.107080
     6  C   -0.121316
     7  C   -0.198987
     8  H    0.107080
     9  H    0.115928
    10  H    0.097296
 Sum of Mulliken charges =  -0.00000
 Mulliken charges with hydrogens summed into heavy atoms:
               1
     1  C    0.014236
     2  C   -0.014236
     6  C   -0.014236
     7  C    0.014236
 Electronic spatial extent (au):  <R**2>=            308.3543
 Charge=             -0.0000 electrons
 Dipole moment (field-independent basis, Debye):
    X=              0.0000    Y=             -0.0000    Z=              0.0783  Tot=              0.0783
 Quadrupole moment (field-independent basis, Debye-Ang):
   XX=            -28.3023   YY=            -24.4389   ZZ=            -23.2216
   XY=             -1.9586   XZ=              0.0000   YZ=              0.0000
 Traceless Quadrupole moment (field-independent basis, Debye-Ang):
   XX=             -2.9814   YY=              0.8821   ZZ=              2.0994
   XY=             -1.9586   XZ=              0.0000   YZ=              0.0000
 Octapole moment (field-independent basis, Debye-Ang**2):
  XXX=             -0.0000  YYY=             -0.0000  ZZZ=              0.8950  XYY=              0.0000
  XXY=             -0.0000  XXZ=              1.1382  XZZ=             -0.0000  YZZ=             -0.0000
  YYZ=             -2.1112  XYZ=             -1.8650
 Hexadecapole moment (field-independent basis, Debye-Ang**3):
 XXXX=            -57.9177 YYYY=           -266.4679 ZZZZ=            -94.3154 XXXY=             31.6324
 XXXZ=             -0.0000 YYYX=             13.4639 YYYZ=             -0.0000 ZZZX=              0.0000
 ZZZY=             -0.0000 XXYY=            -57.0269 XXZZ=            -25.6261 YYZZ=            -63.1310
 XXYZ=              0.0000 YYXZ=             -0.0000 ZZXY=              8.9759
 N-N= 1.045575518552D+02 E-N=-5.693045115503D+02  KE= 1.546935847415D+02
 Symmetry A    KE= 7.857119787230D+01
 Symmetry B    KE= 7.612238686924D+01
 No NMR shielding tensors so no spin-rotation constants.
 Leave Link  601 at Mon Jun  1 23:44:57 2020, MaxMem= 12884901888 cpu:               5.6 elap:               0.6
 (Enter /project/qslin/software/g16/l9999.exe)
 1\1\GINC-N0279\SP\RHF\GFHFB4\C4H6\QSLIN\01-Jun-2020\0\\#p Geom=AllChec
 k Guess=Read HF/GFHFB4\\Hydrogen molecule G4(MP2)-6X calculation\\0,1\
 C,0,0.1218781151,-1.5369100157,0.5090426676\C,0,-0.095703313,-0.732104
 9655,-0.5397991955\H,0,0.4973534825,-1.1493189252,1.4543007226\H,0,-0.
 055908606,-2.6074460108,0.4458027022\H,0,-0.4193050421,-1.1710995554,-
 1.4843502367\C,0,0.095703313,0.7321049655,-0.5397991955\C,0,-0.1218781
 151,1.5369100157,0.5090426675\H,0,0.4193050421,1.1710995553,-1.4843502
 368\H,0,0.055908606,2.6074460108,0.4458027021\H,0,-0.4973534825,1.1493
 189253,1.4543007225\\Version=ES64L-G16RevA.03\State=1-A\HF=-154.981140
 2\RMSD=8.774e-09\Dipole=0.,0.,-0.0308003\Quadrupole=-2.7546859,1.19386
 2,1.5608239,0.5341108,0.,0.\PG=C02 [X(C4H6)]\\@


 REFRAIN FROM ILLUSIONS, INSIST ON WORK AND NOT WORDS,
 PATIENTLY SEEK DIVINE AND SCIENTIFIC TRUTH.
 LAST WORDS OF MARIA MENDELEEVA TO HER SON DMITRI, C. 1850
 Job cpu time:       0 days  0 hours  3 minutes 24.6 seconds.
 Elapsed time:       0 days  0 hours  0 minutes 17.3 seconds.
 File lengths (MBytes):  RWF=     44 Int=      0 D2E=      0 Chk=      9 Scr=      1
 Normal termination of Gaussian 16 at Mon Jun  1 23:44:57 2020.
DA-R.log                                 
   Temperature (K)   373.15
    Pressure (atm)     1.00
   NImag     0
   E_ele    -155.80736372
   H(0K)    -155.72406127
    H(T)    -155.71592237
    U(T)    -155.71710406
    G(T)    -155.75836157

