 Entering Gaussian System, Link 0=g16
 Input=DA-R2.gjf
 Output=DA-R2.log
 Initial command:
 /project/qslin/software/g16/l1.exe "/workfs/qslin/tmp/Gau-9616.inp" -scrdir="/workfs/qslin/tmp/"
 Default is to use a total of  16 processors:
                               16 via shared-memory
                                1 via Linda
 Entering Link 1 = /project/qslin/software/g16/l1.exe PID=      9617.
  
 Copyright (c) 1988,1990,1992,1993,1995,1998,2003,2009,2016,
            Gaussian, Inc.  All Rights Reserved.
  
 This is part of the Gaussian(R) 16 program.  It is based on
 the Gaussian(R) 09 system (copyright 2009, Gaussian, Inc.),
 the Gaussian(R) 03 system (copyright 2003, Gaussian, Inc.),
 the Gaussian(R) 98 system (copyright 1998, Gaussian, Inc.),
 the Gaussian(R) 94 system (copyright 1995, Gaussian, Inc.),
 the Gaussian 92(TM) system (copyright 1992, Gaussian, Inc.),
 the Gaussian 90(TM) system (copyright 1990, Gaussian, Inc.),
 the Gaussian 88(TM) system (copyright 1988, Gaussian, Inc.),
 the Gaussian 86(TM) system (copyright 1986, Carnegie Mellon
 University), and the Gaussian 82(TM) system (copyright 1983,
 Carnegie Mellon University). Gaussian is a federally registered
 trademark of Gaussian, Inc.
  
 This software contains proprietary and confidential information,
 including trade secrets, belonging to Gaussian, Inc.
  
 This software is provided under written license and may be
 used, copied, transmitted, or stored only in accord with that
 written license.
  
 The following legend is applicable only to US Government
 contracts under FAR:
  
                    RESTRICTED RIGHTS LEGEND
  
 Use, reproduction and disclosure by the US Government is
 subject to restrictions as set forth in subparagraphs (a)
 and (c) of the Commercial Computer Software - Restricted
 Rights clause in FAR 52.227-19.
  
 Gaussian, Inc.
 340 Quinnipiac St., Bldg. 40, Wallingford CT 06492
  
  
 ---------------------------------------------------------------
 Warning -- This program may not be used in any manner that
 competes with the business of Gaussian, Inc. or will provide
 assistance to any competitor of Gaussian, Inc.  The licensee
 of this program is prohibited from giving any competitor of
 Gaussian, Inc. access to this program.  By using this program,
 the user acknowledges that Gaussian, Inc. is engaged in the
 business of creating and licensing software in the field of
 computational chemistry and represents and warrants to the
 licensee that it is not a competitor of Gaussian, Inc. and that
 it will not use this program in any manner prohibited above.
 ---------------------------------------------------------------
  

 Cite this work as:
 Gaussian 16, Revision A.03,
 M. J. Frisch, G. W. Trucks, H. B. Schlegel, G. E. Scuseria, 
 M. A. Robb, J. R. Cheeseman, G. Scalmani, V. Barone, 
 G. A. Petersson, H. Nakatsuji, X. Li, M. Caricato, A. V. Marenich, 
 J. Bloino, B. G. Janesko, R. Gomperts, B. Mennucci, H. P. Hratchian, 
 J. V. Ortiz, A. F. Izmaylov, J. L. Sonnenberg, D. Williams-Young, 
 F. Ding, F. Lipparini, F. Egidi, J. Goings, B. Peng, A. Petrone, 
 T. Henderson, D. Ranasinghe, V. G. Zakrzewski, J. Gao, N. Rega, 
 G. Zheng, W. Liang, M. Hada, M. Ehara, K. Toyota, R. Fukuda, 
 J. Hasegawa, M. Ishida, T. Nakajima, Y. Honda, O. Kitao, H. Nakai, 
 T. Vreven, K. Throssell, J. A. Montgomery, Jr., J. E. Peralta, 
 F. Ogliaro, M. J. Bearpark, J. J. Heyd, E. N. Brothers, K. N. Kudin, 
 V. N. Staroverov, T. A. Keith, R. Kobayashi, J. Normand, 
 K. Raghavachari, A. P. Rendell, J. C. Burant, S. S. Iyengar, 
 J. Tomasi, M. Cossi, J. M. Millam, M. Klene, C. Adamo, R. Cammi, 
 J. W. Ochterski, R. L. Martin, K. Morokuma, O. Farkas, 
 J. B. Foresman, and D. J. Fox, Gaussian, Inc., Wallingford CT, 2016.
 
 ******************************************
 Gaussian 16:  ES64L-G16RevA.03 25-Dec-2016
                 1-Jun-2020 
 ******************************************
 %nproc=16
 Will use up to   16 processors via shared memory.
 %mem=96GB
 %chk=DA-R2.chk
 -------------------------------
 #p BMK/6-31+G(2df,p) Opt=calcfc
 -------------------------------
 1/10=4,18=20,19=15,26=3,38=1/1,3;
 2/9=110,12=2,17=6,18=5,40=1/2;
 3/5=1,6=6,7=114,11=2,25=1,30=1,71=2,74=-34,140=1/1,2,3;
 4//1;
 5/5=2,38=5/2;
 8/6=4,10=90,11=11/1;
 11/6=1,8=1,9=11,15=111,16=1/1,2,10;
 10/6=1,13=1/2;
 6/7=2,8=2,9=2,10=2,28=1/1;
 7/10=1,18=20,25=1/1,2,3,16;
 1/10=4,18=20,19=15,26=3/3(2);
 2/9=110/2;
 99//99;
 2/9=110/2;
 3/5=1,6=6,7=114,11=2,25=1,30=1,71=1,74=-34/1,2,3;
 4/5=5,16=3,69=1/1;
 5/5=2,38=5/2;
 7//1,2,3,16;
 1/18=20,19=15,26=3/3(-5);
 2/9=110/2;
 6/7=2,8=2,9=2,10=2,19=2,28=1/1;
 99/9=1/99;
 Leave Link    1 at Mon Jun  1 23:45:27 2020, MaxMem= 12884901888 cpu:               1.9 elap:               0.1
 (Enter /project/qslin/software/g16/l101.exe)
 ----------------------------------------
 Hydrogen molecule G4(MP2)-6X calculation
 ----------------------------------------
 Symbolic Z-matrix:
 Charge =  0 Multiplicity = 1
 C                    -0.6776    0.        0. 
 C                     0.6776    0.        0. 
 H                    -1.2126    0.92665   0. 
 H                    -1.2126   -0.92665   0. 
 H                     1.2126   -0.92665   0. 
 H                     1.2126    0.92665   0. 
 
 ITRead=  0  0  0  0  0  0
 MicOpt= -1 -1 -1 -1 -1 -1
 NAtoms=      6 NQM=        6 NQMF=       0 NMMI=      0 NMMIF=      0
                NMic=       0 NMicF=      0.
                    Isotopes and Nuclear Properties:
 (Nuclear quadrupole moments (NQMom) in fm**2, nuclear magnetic moments (NMagM)
  in nuclear magnetons)

  Atom         1           2           3           4           5           6
 IAtWgt=          12          12           1           1           1           1
 AtmWgt=  12.0000000  12.0000000   1.0078250   1.0078250   1.0078250   1.0078250
 NucSpn=           0           0           1           1           1           1
 AtZEff=  -0.0000000  -0.0000000  -0.0000000  -0.0000000  -0.0000000  -0.0000000
 NQMom=    0.0000000   0.0000000   0.0000000   0.0000000   0.0000000   0.0000000
 NMagM=    0.0000000   0.0000000   2.7928460   2.7928460   2.7928460   2.7928460
 AtZNuc=   6.0000000   6.0000000   1.0000000   1.0000000   1.0000000   1.0000000
 Leave Link  101 at Mon Jun  1 23:45:29 2020, MaxMem= 12884901888 cpu:               5.1 elap:               0.4
 (Enter /project/qslin/software/g16/l103.exe)

 GradGradGradGradGradGradGradGradGradGradGradGradGradGradGradGradGradGrad
 Berny optimization.
 Initialization pass.
                           ----------------------------
                           !    Initial Parameters    !
                           ! (Angstroms and Degrees)  !
 --------------------------                            --------------------------
 ! Name  Definition              Value          Derivative Info.                !
 --------------------------------------------------------------------------------
 ! R1    R(1,2)                  1.3552         calculate D2E/DX2 analytically  !
 ! R2    R(1,3)                  1.07           calculate D2E/DX2 analytically  !
 ! R3    R(1,4)                  1.07           calculate D2E/DX2 analytically  !
 ! R4    R(2,5)                  1.07           calculate D2E/DX2 analytically  !
 ! R5    R(2,6)                  1.07           calculate D2E/DX2 analytically  !
 ! A1    A(2,1,3)              120.0            calculate D2E/DX2 analytically  !
 ! A2    A(2,1,4)              120.0            calculate D2E/DX2 analytically  !
 ! A3    A(3,1,4)              120.0            calculate D2E/DX2 analytically  !
 ! A4    A(1,2,5)              120.0            calculate D2E/DX2 analytically  !
 ! A5    A(1,2,6)              120.0            calculate D2E/DX2 analytically  !
 ! A6    A(5,2,6)              120.0            calculate D2E/DX2 analytically  !
 ! D1    D(3,1,2,5)            180.0            calculate D2E/DX2 analytically  !
 ! D2    D(3,1,2,6)              0.0            calculate D2E/DX2 analytically  !
 ! D3    D(4,1,2,5)              0.0            calculate D2E/DX2 analytically  !
 ! D4    D(4,1,2,6)            180.0            calculate D2E/DX2 analytically  !
 --------------------------------------------------------------------------------
 Trust Radius=3.00D-01 FncErr=1.00D-07 GrdErr=1.00D-06 EigMax=2.50D+02 EigMin=1.00D-04
 Number of steps in this run=     25 maximum allowed number of steps=    100.
 GradGradGradGradGradGradGradGradGradGradGradGradGradGradGradGradGradGrad

 Leave Link  103 at Mon Jun  1 23:45:29 2020, MaxMem= 12884901888 cpu:               0.2 elap:               0.0
 (Enter /project/qslin/software/g16/l202.exe)
                          Input orientation:                          
 ---------------------------------------------------------------------
 Center     Atomic      Atomic             Coordinates (Angstroms)
 Number     Number       Type             X           Y           Z
 ---------------------------------------------------------------------
      1          6           0       -0.677600    0.000000    0.000000
      2          6           0        0.677600    0.000000    0.000000
      3          1           0       -1.212600    0.926647    0.000000
      4          1           0       -1.212600   -0.926647    0.000000
      5          1           0        1.212600   -0.926647    0.000000
      6          1           0        1.212600    0.926647    0.000000
 ---------------------------------------------------------------------
                    Distance matrix (angstroms):
                    1          2          3          4          5
     1  C    0.000000
     2  C    1.355200   0.000000
     3  H    1.070000   2.105120   0.000000
     4  H    1.070000   2.105120   1.853294   0.000000
     5  H    2.105120   1.070000   3.052261   2.425200   0.000000
     6  H    2.105120   1.070000   2.425200   3.052261   1.853294
                    6
     6  H    0.000000
 Stoichiometry    C2H4
 Framework group  D2H[C2"(C.C),SG(H4)]
 Deg. of freedom     3
 Full point group                 D2H     NOp   8
 Largest Abelian subgroup         D2H     NOp   8
 Largest concise Abelian subgroup D2      NOp   4
                         Standard orientation:                         
 ---------------------------------------------------------------------
 Center     Atomic      Atomic             Coordinates (Angstroms)
 Number     Number       Type             X           Y           Z
 ---------------------------------------------------------------------
      1          6           0        0.000000    0.000000    0.677600
      2          6           0        0.000000    0.000000   -0.677600
      3          1           0        0.000000    0.926647    1.212600
      4          1           0       -0.000000   -0.926647    1.212600
      5          1           0       -0.000000   -0.926647   -1.212600
      6          1           0        0.000000    0.926647   -1.212600
 ---------------------------------------------------------------------
 Rotational constants (GHZ):         145.9967702          29.8211119          24.7630444
 Leave Link  202 at Mon Jun  1 23:45:31 2020, MaxMem= 12884901888 cpu:              22.1 elap:               1.5
 (Enter /project/qslin/software/g16/l301.exe)
 Standard basis: 6-31+G(2df,p) (6D, 7F)
 Ernie: Thresh=  0.10000D-02 Tol=  0.10000D-05 Strict=F.
 There are    20 symmetry adapted cartesian basis functions of AG  symmetry.
 There are     4 symmetry adapted cartesian basis functions of B1G symmetry.
 There are     9 symmetry adapted cartesian basis functions of B2G symmetry.
 There are    12 symmetry adapted cartesian basis functions of B3G symmetry.
 There are     4 symmetry adapted cartesian basis functions of AU  symmetry.
 There are    20 symmetry adapted cartesian basis functions of B1U symmetry.
 There are    12 symmetry adapted cartesian basis functions of B2U symmetry.
 There are     9 symmetry adapted cartesian basis functions of B3U symmetry.
 There are    19 symmetry adapted basis functions of AG  symmetry.
 There are     4 symmetry adapted basis functions of B1G symmetry.
 There are     8 symmetry adapted basis functions of B2G symmetry.
 There are    11 symmetry adapted basis functions of B3G symmetry.
 There are     4 symmetry adapted basis functions of AU  symmetry.
 There are    19 symmetry adapted basis functions of B1U symmetry.
 There are    11 symmetry adapted basis functions of B2U symmetry.
 There are     8 symmetry adapted basis functions of B3U symmetry.
    84 basis functions,   124 primitive gaussians,    90 cartesian basis functions
     8 alpha electrons        8 beta electrons
       nuclear repulsion energy        33.3138809780 Hartrees.
 IExCor= 3226 DFT=T Ex+Corr=BMK ExCW=0 ScaHFX=  0.420000
 ScaDFX=  1.000000  1.000000  1.000000  1.000000 ScalE2=  1.000000  1.000000
 IRadAn=      5 IRanWt=     -1 IRanGd=            0 ICorTp=0 IEmpDi=  4
 NAtoms=    6 NActive=    6 NUniq=    2 SFac= 4.00D+00 NAtFMM=   60 NAOKFM=F Big=F
 Integral buffers will be    131072 words long.
 Raffenetti 2 integral format.
 Two-electron integral symmetry is turned on.
 Leave Link  301 at Mon Jun  1 23:45:31 2020, MaxMem= 12884901888 cpu:               1.2 elap:               0.1
 (Enter /project/qslin/software/g16/l302.exe)
 NPDir=0 NMtPBC=     1 NCelOv=     1 NCel=       1 NClECP=     1 NCelD=      1
         NCelK=      1 NCelE2=     1 NClLst=     1 CellRange=     0.0.
 One-electron integrals computed using PRISM.
 One-electron integral symmetry used in STVInt
 NBasis=    84 RedAO= T EigKep=  2.09D-04  NBF=    19     4     8    11     4    19    11     8
 NBsUse=    84 1.00D-06 EigRej= -1.00D+00 NBFU=    19     4     8    11     4    19    11     8
 Precomputing XC quadrature grid using
 IXCGrd= 4 IRadAn=           5 IRanWt=          -1 IRanGd=           0 AccXCQ= 0.00D+00.
 Generated NRdTot=       0 NPtTot=           0 NUsed=           0 NTot=          32
 NSgBfM=    90    90    90    90    90 MxSgAt=     6 MxSgA2=     6.
 Leave Link  302 at Mon Jun  1 23:45:35 2020, MaxMem= 12884901888 cpu:               3.9 elap:               0.3
 (Enter /project/qslin/software/g16/l303.exe)
 DipDrv:  MaxL=1.
 Leave Link  303 at Mon Jun  1 23:45:35 2020, MaxMem= 12884901888 cpu:               0.6 elap:               0.1
 (Enter /project/qslin/software/g16/l401.exe)
 ExpMin= 4.38D-02 ExpMax= 3.05D+03 ExpMxC= 4.57D+02 IAcc=3 IRadAn=         5 AccDes= 0.00D+00
 Harris functional with IExCor= 1009 and IRadAn=       5 diagonalized for initial guess.
 HarFok:  IExCor= 1009 AccDes= 0.00D+00 IRadAn=         5 IDoV= 1 UseB2=F ITyADJ=14
 ICtDFT=  3500011 ScaDFX=  1.000000  1.000000  1.000000  1.000000
 FoFCou: FMM=F IPFlag=           0 FMFlag=      100000 FMFlg1=           0
         NFxFlg=           0 DoJE=T BraDBF=F KetDBF=T FulRan=T
         wScrn=  0.000000 ICntrl=       500 IOpCl=  0 I1Cent=   200000004 NGrid=           0
         NMat0=    1 NMatS0=      1 NMatT0=    0 NMatD0=    1 NMtDS0=    0 NMtDT0=    0
 Petite list used in FoFCou.
 Harris En= -78.5517407496425    
 JPrj=0 DoOrth=F DoCkMO=F.
 Initial guess orbital symmetries:
       Occupied  (AG) (B1U) (AG) (B1U) (B2U) (AG) (B3G) (B3U)
       Virtual   (B2G) (AG) (B2U) (B1U) (B3U) (AG) (B3G) (B2G)
                 (AG) (B2U) (B1U) (B1U) (B1U) (B3G) (AG) (B2U)
                 (B1U) (B3U) (B1G) (AG) (B2G) (B2U) (B3U) (AG)
                 (B1U) (B3G) (AU) (B3G) (B1U) (AG) (B2G) (B2U)
                 (AG) (B1U) (B3G) (B1U) (B1G) (B2U) (B3U) (AG)
                 (B2G) (AU) (B3G) (B1U) (AG) (B3U) (AG) (B2U) (B1U)
                 (AG) (B2U) (B1U) (B3U) (B1G) (B3G) (B2G) (B1U)
                 (B2U) (B2G) (B3G) (AU) (AG) (B1G) (B3G) (AU) (B3U)
                 (B2G) (B1U) (AG) (B2U) (B1U) (B3G) (AG) (B1U)
                 (AG) (B1U)
 The electronic state of the initial guess is 1-AG.
 Leave Link  401 at Mon Jun  1 23:45:36 2020, MaxMem= 12884901888 cpu:               4.5 elap:               0.3
 (Enter /project/qslin/software/g16/l502.exe)
 Keep R1 ints in memory in symmetry-blocked form, NReq=21004675.
 FoFCou: FMM=F IPFlag=           0 FMFlag=           0 FMFlg1=           0
         NFxFlg=           0 DoJE=F BraDBF=F KetDBF=F FulRan=T
         wScrn=  0.000000 ICntrl=       600 IOpCl=  0 I1Cent=           0 NGrid=           0
         NMat0=    1 NMatS0=   3570 NMatT0=    0 NMatD0=    1 NMtDS0=    0 NMtDT0=    0
 Petite list used in FoFCou.
 Closed shell SCF:
 Using DIIS extrapolation, IDIIS=  1040.
 NGot= 12884901888 LenX= 12884034857 LenY= 12884026316
 Requested convergence on RMS density matrix=1.00D-08 within 128 cycles.
 Requested convergence on MAX density matrix=1.00D-06.
 Requested convergence on             energy=1.00D-06.
 No special actions if energy rises.

 Cycle   1  Pass 1  IDiag  1:
 E= -78.4463041748280    
 DIIS: error= 3.80D-02 at cycle   1 NSaved=   1.
 NSaved= 1 IEnMin= 1 EnMin= -78.4463041748280     IErMin= 1 ErrMin= 3.80D-02
 ErrMax= 3.80D-02  0.00D+00 EMaxC= 1.00D-01 BMatC= 7.26D-02 BMatP= 7.26D-02
 IDIUse=3 WtCom= 6.20D-01 WtEn= 3.80D-01
 Coeff-Com:  0.100D+01
 Coeff-En:   0.100D+01
 Coeff:      0.100D+01
 Gap=     0.280 Goal=   None    Shift=    0.000
 GapD=    0.280 DampG=1.000 DampE=0.500 DampFc=0.5000 IDamp=-1.
 Damping current iteration by 5.00D-01
 RMSDP=4.97D-03 MaxDP=9.99D-02              OVMax= 1.73D-01

 Cycle   2  Pass 1  IDiag  1:
 E= -78.4897261651536     Delta-E=       -0.043421990326 Rises=F Damp=T
 DIIS: error= 6.58D-03 at cycle   2 NSaved=   2.
 NSaved= 2 IEnMin= 2 EnMin= -78.4897261651536     IErMin= 2 ErrMin= 6.58D-03
 ErrMax= 6.58D-03  0.00D+00 EMaxC= 1.00D-01 BMatC= 2.65D-03 BMatP= 7.26D-02
 IDIUse=3 WtCom= 9.34D-01 WtEn= 6.58D-02
 Coeff-Com: -0.958D-01 0.110D+01
 Coeff-En:   0.000D+00 0.100D+01
 Coeff:     -0.895D-01 0.109D+01
 Gap=     0.352 Goal=   None    Shift=    0.000
 RMSDP=9.90D-04 MaxDP=1.25D-02 DE=-4.34D-02 OVMax= 7.90D-02

 Cycle   3  Pass 1  IDiag  1:
 E= -78.5292004072743     Delta-E=       -0.039474242121 Rises=F Damp=F
 DIIS: error= 1.38D-03 at cycle   3 NSaved=   3.
 NSaved= 3 IEnMin= 3 EnMin= -78.5292004072743     IErMin= 3 ErrMin= 1.38D-03
 ErrMax= 1.38D-03  0.00D+00 EMaxC= 1.00D-01 BMatC= 3.88D-05 BMatP= 2.65D-03
 IDIUse=3 WtCom= 9.86D-01 WtEn= 1.38D-02
 Coeff-Com: -0.160D-01 0.446D-01 0.971D+00
 Coeff-En:   0.000D+00 0.000D+00 0.100D+01
 Coeff:     -0.158D-01 0.440D-01 0.972D+00
 Gap=     0.331 Goal=   None    Shift=    0.000
 RMSDP=1.11D-04 MaxDP=1.98D-03 DE=-3.95D-02 OVMax= 2.77D-03

 Cycle   4  Pass 1  IDiag  1:
 E= -78.5292346289980     Delta-E=       -0.000034221724 Rises=F Damp=F
 DIIS: error= 2.21D-04 at cycle   4 NSaved=   4.
 NSaved= 4 IEnMin= 4 EnMin= -78.5292346289980     IErMin= 4 ErrMin= 2.21D-04
 ErrMax= 2.21D-04  0.00D+00 EMaxC= 1.00D-01 BMatC= 1.40D-06 BMatP= 3.88D-05
 IDIUse=3 WtCom= 9.98D-01 WtEn= 2.21D-03
 Coeff-Com: -0.134D-02-0.114D-02 0.150D+00 0.852D+00
 Coeff-En:   0.000D+00 0.000D+00 0.000D+00 0.100D+01
 Coeff:     -0.134D-02-0.114D-02 0.150D+00 0.853D+00
 Gap=     0.332 Goal=   None    Shift=    0.000
 RMSDP=1.52D-05 MaxDP=2.54D-04 DE=-3.42D-05 OVMax= 4.43D-04

 Cycle   5  Pass 1  IDiag  1:
 E= -78.5292360032104     Delta-E=       -0.000001374212 Rises=F Damp=F
 DIIS: error= 2.73D-05 at cycle   5 NSaved=   5.
 NSaved= 5 IEnMin= 5 EnMin= -78.5292360032104     IErMin= 5 ErrMin= 2.73D-05
 ErrMax= 2.73D-05  0.00D+00 EMaxC= 1.00D-01 BMatC= 2.02D-08 BMatP= 1.40D-06
 IDIUse=1 WtCom= 1.00D+00 WtEn= 0.00D+00
 Coeff-Com:  0.534D-03-0.105D-02-0.257D-01-0.123D-01 0.104D+01
 Coeff:      0.534D-03-0.105D-02-0.257D-01-0.123D-01 0.104D+01
 Gap=     0.332 Goal=   None    Shift=    0.000
 RMSDP=3.87D-06 MaxDP=5.50D-05 DE=-1.37D-06 OVMax= 8.09D-05

 Cycle   6  Pass 1  IDiag  1:
 E= -78.5292360337048     Delta-E=       -0.000000030494 Rises=F Damp=F
 DIIS: error= 2.04D-06 at cycle   6 NSaved=   6.
 NSaved= 6 IEnMin= 6 EnMin= -78.5292360337048     IErMin= 6 ErrMin= 2.04D-06
 ErrMax= 2.04D-06  0.00D+00 EMaxC= 1.00D-01 BMatC= 1.53D-10 BMatP= 2.02D-08
 IDIUse=1 WtCom= 1.00D+00 WtEn= 0.00D+00
 Coeff-Com: -0.734D-05 0.487D-04-0.122D-03-0.749D-02-0.857D-01 0.109D+01
 Coeff:     -0.734D-05 0.487D-04-0.122D-03-0.749D-02-0.857D-01 0.109D+01
 Gap=     0.332 Goal=   None    Shift=    0.000
 RMSDP=5.24D-07 MaxDP=7.15D-06 DE=-3.05D-08 OVMax= 1.13D-05

 Cycle   7  Pass 1  IDiag  1:
 E= -78.5292360340876     Delta-E=       -0.000000000383 Rises=F Damp=F
 DIIS: error= 1.82D-07 at cycle   7 NSaved=   7.
 NSaved= 7 IEnMin= 7 EnMin= -78.5292360340876     IErMin= 7 ErrMin= 1.82D-07
 ErrMax= 1.82D-07  0.00D+00 EMaxC= 1.00D-01 BMatC= 1.05D-12 BMatP= 1.53D-10
 IDIUse=1 WtCom= 1.00D+00 WtEn= 0.00D+00
 Coeff-Com: -0.986D-06 0.385D-06 0.122D-03 0.852D-03 0.839D-03-0.885D-01
 Coeff-Com:  0.109D+01
 Coeff:     -0.986D-06 0.385D-06 0.122D-03 0.852D-03 0.839D-03-0.885D-01
 Coeff:      0.109D+01
 Gap=     0.332 Goal=   None    Shift=    0.000
 RMSDP=4.08D-08 MaxDP=5.03D-07 DE=-3.83D-10 OVMax= 1.21D-06

 Cycle   8  Pass 1  IDiag  1:
 E= -78.5292360340901     Delta-E=       -0.000000000003 Rises=F Damp=F
 DIIS: error= 1.61D-08 at cycle   8 NSaved=   8.
 NSaved= 8 IEnMin= 8 EnMin= -78.5292360340901     IErMin= 8 ErrMin= 1.61D-08
 ErrMax= 1.61D-08  0.00D+00 EMaxC= 1.00D-01 BMatC= 9.65D-15 BMatP= 1.05D-12
 IDIUse=1 WtCom= 1.00D+00 WtEn= 0.00D+00
 Coeff-Com: -0.223D-07 0.945D-07-0.941D-05-0.439D-04 0.378D-03-0.116D-02
 Coeff-Com: -0.730D-01 0.107D+01
 Coeff:     -0.223D-07 0.945D-07-0.941D-05-0.439D-04 0.378D-03-0.116D-02
 Coeff:     -0.730D-01 0.107D+01
 Gap=     0.332 Goal=   None    Shift=    0.000
 RMSDP=4.53D-09 MaxDP=4.49D-08 DE=-2.50D-12 OVMax= 1.36D-07

 SCF Done:  E(RBMK) =  -78.5292360341     A.U. after    8 cycles
            NFock=  8  Conv=0.45D-08     -V/T= 2.0096
 KE= 7.778432510190D+01 PE=-2.479044471654D+02 EE= 5.827700505136D+01
 Leave Link  502 at Mon Jun  1 23:45:36 2020, MaxMem= 12884901888 cpu:               9.9 elap:               0.7
 (Enter /project/qslin/software/g16/l801.exe)
 DoSCS=F DFT=T ScalE2(SS,OS)=  1.000000  1.000000
 Range of M.O.s used for correlation:     1    84
 NBasis=    84 NAE=     8 NBE=     8 NFC=     0 NFV=     0
 NROrb=     84 NOA=     8 NOB=     8 NVA=    76 NVB=    76

 **** Warning!!: The largest alpha MO coefficient is  0.34239045D+02

 Leave Link  801 at Mon Jun  1 23:45:37 2020, MaxMem= 12884901888 cpu:               0.6 elap:               0.1
 (Enter /project/qslin/software/g16/l1101.exe)
 Using compressed storage, NAtomX=     6.
 Will process      7 centers per pass.
 Leave Link 1101 at Mon Jun  1 23:45:37 2020, MaxMem= 12884901888 cpu:               3.5 elap:               0.3
 (Enter /project/qslin/software/g16/l1102.exe)
 Symmetrizing basis deriv contribution to polar:
 IMax=3 JMax=2 DiffMx= 0.00D+00
 Leave Link 1102 at Mon Jun  1 23:45:38 2020, MaxMem= 12884901888 cpu:               1.1 elap:               0.1
 (Enter /project/qslin/software/g16/l1110.exe)
 Forming Gx(P) for the SCF density, NAtomX=     6.
 Integral derivatives from FoFJK, PRISM(SPDF).
 Do as many integral derivatives as possible in FoFJK.
 G2DrvN: MDV=   12884901332.
 G2DrvN: will do     7 centers at a time, making    1 passes.
 Calling FoFCou, ICntrl=  3107 FMM=F I1Cent=   0 AccDes= 0.00D+00.
 FoFJK:  IHMeth= 1 ICntrl=    3107 DoSepK=F KAlg= 0 I1Cent=           0 FoldK=F
 IRaf=         0 NMat=       1 IRICut=       1 DoRegI=T DoRafI=F ISym2E= 1 IDoP0=0 IntGTp=1.
 FoFCou: FMM=F IPFlag=           0 FMFlag=      100000 FMFlg1=           0
         NFxFlg=           0 DoJE=F BraDBF=F KetDBF=F FulRan=T
         wScrn=  0.000000 ICntrl=      3107 IOpCl=  0 I1Cent=           0 NGrid=           0
         NMat0=    1 NMatS0=      1 NMatT0=    0 NMatD0=    1 NMtDS0=    0 NMtDT0=    0
 Petite list used in FoFCou.
 End of G2Drv F.D. properties file   721 does not exist.
 End of G2Drv F.D. properties file   722 does not exist.
 End of G2Drv F.D. properties file   788 does not exist.
 Leave Link 1110 at Mon Jun  1 23:45:39 2020, MaxMem= 12884901888 cpu:              14.1 elap:               0.9
 (Enter /project/qslin/software/g16/l1002.exe)
 Minotr:  Closed shell wavefunction.
          IDoAtm=111111
          Direct CPHF calculation.
          Differentiating once with respect to nuclear coordinates.
          Using symmetry in CPHF.
          Requested convergence is 1.0D-08 RMS, and 1.0D-07 maximum.
          Secondary convergence is 1.0D-12 RMS, and 1.0D-12 maximum.
          NewPWx=T KeepS1=F KeepF1=F KeepIn=T MapXYZ=F SortEE=F KeepMc=T.
         1817 words used for storage of precomputed grid.
 Keep R1 ints in memory in symmetry-blocked form, NReq=20954236.
 FoFCou: FMM=F IPFlag=           0 FMFlag=           0 FMFlg1=           0
         NFxFlg=           0 DoJE=F BraDBF=F KetDBF=F FulRan=T
         wScrn=  0.000000 ICntrl=       600 IOpCl=  0 I1Cent=           0 NGrid=           0
         NMat0=    1 NMatS0=   3570 NMatT0=    0 NMatD0=    1 NMtDS0=    0 NMtDT0=    0
 Petite list used in FoFCou.
          MDV=   12884901888 using IRadAn=       1.
          Solving linear equations simultaneously, MaxMat=       0.
          There are     9 degrees of freedom in the 1st order CPHF.  IDoFFX=4 NUNeed=     9.
      6 vectors produced by pass  0 Test12= 6.76D-15 1.11D-08 XBig12= 5.59D-02 7.49D-02.
 AX will form     6 AO Fock derivatives at one time.
      6 vectors produced by pass  1 Test12= 6.76D-15 1.11D-08 XBig12= 1.22D-02 6.67D-02.
      6 vectors produced by pass  2 Test12= 6.76D-15 1.11D-08 XBig12= 6.61D-04 1.30D-02.
      6 vectors produced by pass  3 Test12= 6.76D-15 1.11D-08 XBig12= 1.53D-05 1.12D-03.
      6 vectors produced by pass  4 Test12= 6.76D-15 1.11D-08 XBig12= 2.18D-07 1.39D-04.
      6 vectors produced by pass  5 Test12= 6.76D-15 1.11D-08 XBig12= 1.91D-09 1.27D-05.
      6 vectors produced by pass  6 Test12= 6.76D-15 1.11D-08 XBig12= 1.01D-11 5.86D-07.
      3 vectors produced by pass  7 Test12= 6.76D-15 1.11D-08 XBig12= 9.02D-14 7.73D-08.
 InvSVY:  IOpt=1 It=  1 EMax= 4.44D-16
 Solved reduced A of dimension    45 with     6 vectors.
 FullF1:  Do perturbations      4 to       9.
 End of Minotr F.D. properties file   721 does not exist.
 End of Minotr F.D. properties file   722 does not exist.
 End of Minotr F.D. properties file   788 does not exist.
 Leave Link 1002 at Mon Jun  1 23:45:41 2020, MaxMem= 12884901888 cpu:              31.4 elap:               2.0
 (Enter /project/qslin/software/g16/l601.exe)
 Copying SCF densities to generalized density rwf, IOpCl= 0 IROHF=0.

 **********************************************************************

            Population analysis using the SCF density.

 **********************************************************************

 Orbital symmetries:
       Occupied  (AG) (B1U) (AG) (B1U) (B2U) (AG) (B3G) (B3U)
       Virtual   (B2G) (B1U) (AG) (B2U) (B3U) (B3G) (AG) (B2G)
                 (B1U) (AG) (B2U) (B1U) (B1U) (B3G) (AG) (B2U)
                 (B3U) (B1U) (AG) (B1G) (B2G) (B2U) (AG) (B3U)
                 (B1U) (B3G) (AU) (B3G) (B1U) (AG) (B2G) (B2U)
                 (AG) (B1U) (B3G) (B1U) (B1G) (AG) (B3U) (B2U)
                 (B2G) (AU) (B1U) (B3G) (AG) (B2U) (AG) (B3U) (B1U)
                 (AG) (B2U) (B1U) (B3U) (B3G) (B1G) (B2G) (B1U)
                 (B2G) (B2U) (AU) (B3G) (AG) (B3G) (B1G) (AU) (B3U)
                 (B1U) (B2G) (AG) (B2U) (B1U) (B3G) (AG) (B1U)
                 (AG) (B1U)
 The electronic state is 1-AG.
 Alpha  occ. eigenvalues --  -10.48055 -10.47961  -0.82930  -0.64406  -0.52664
 Alpha  occ. eigenvalues --   -0.45624  -0.40780  -0.30924
 Alpha virt. eigenvalues --    0.02232   0.06503   0.06798   0.08908   0.11151
 Alpha virt. eigenvalues --    0.11705   0.12199   0.16100   0.19314   0.22267
 Alpha virt. eigenvalues --    0.24925   0.29694   0.37264   0.39244   0.60150
 Alpha virt. eigenvalues --    0.68274   0.70105   0.71308   0.72690   0.74864
 Alpha virt. eigenvalues --    0.75459   0.82510   0.91220   0.93040   0.93101
 Alpha virt. eigenvalues --    0.99877   1.01099   1.11275   1.13065   1.29128
 Alpha virt. eigenvalues --    1.49642   1.73010   1.73616   1.75437   1.83108
 Alpha virt. eigenvalues --    1.91825   2.22497   2.27860   2.28801   2.30294
 Alpha virt. eigenvalues --    2.34530   2.79133   2.87374   2.89472   2.91607
 Alpha virt. eigenvalues --    2.98512   2.98525   2.99272   3.05130   3.23814
 Alpha virt. eigenvalues --    3.30095   3.32050   3.34596   3.43305   3.44063
 Alpha virt. eigenvalues --    3.64642   3.68133   3.86899   3.89275   3.97002
 Alpha virt. eigenvalues --    3.98537   4.10852   4.26033   4.27823   4.40639
 Alpha virt. eigenvalues --    4.56367   4.62620   4.62686   4.82177   5.02633
 Alpha virt. eigenvalues --    5.09631   5.28580   5.45639   6.12461  10.68272
 Alpha virt. eigenvalues --   11.68044
          Condensed to atoms (all electrons):
               1          2          3          4          5          6
     1  C    4.836629   0.751795   0.378536   0.378536  -0.016336  -0.016336
     2  C    0.751795   4.836629  -0.016336  -0.016336   0.378536   0.378536
     3  H    0.378536  -0.016336   0.517608  -0.032866   0.004306  -0.007661
     4  H    0.378536  -0.016336  -0.032866   0.517608  -0.007661   0.004306
     5  H   -0.016336   0.378536   0.004306  -0.007661   0.517608  -0.032866
     6  H   -0.016336   0.378536  -0.007661   0.004306  -0.032866   0.517608
 Mulliken charges:
               1
     1  C   -0.312824
     2  C   -0.312824
     3  H    0.156412
     4  H    0.156412
     5  H    0.156412
     6  H    0.156412
 Sum of Mulliken charges =  -0.00000
 Mulliken charges with hydrogens summed into heavy atoms:
               1
     1  C   -0.000000
     2  C   -0.000000
 APT charges:
               1
     1  C   -0.754329
     2  C   -0.754329
     3  H    0.377164
     4  H    0.377164
     5  H    0.377164
     6  H    0.377164
 Sum of APT charges =  -0.00000
 APT charges with hydrogens summed into heavy atoms:
               1
     1  C   -0.000000
     2  C   -0.000000
 Electronic spatial extent (au):  <R**2>=             82.9129
 Charge=             -0.0000 electrons
 Dipole moment (field-independent basis, Debye):
    X=             -0.0000    Y=              0.0000    Z=              0.0000  Tot=              0.0000
 Quadrupole moment (field-independent basis, Debye-Ang):
   XX=            -15.8689   YY=            -12.0798   ZZ=            -12.3597
   XY=              0.0000   XZ=             -0.0000   YZ=             -0.0000
 Traceless Quadrupole moment (field-independent basis, Debye-Ang):
   XX=             -2.4328   YY=              1.3563   ZZ=              1.0764
   XY=              0.0000   XZ=             -0.0000   YZ=             -0.0000
 Octapole moment (field-independent basis, Debye-Ang**2):
  XXX=             -0.0000  YYY=              0.0000  ZZZ=              0.0000  XYY=             -0.0000
  XXY=             -0.0000  XXZ=              0.0000  XZZ=             -0.0000  YZZ=              0.0000
  YYZ=              0.0000  XYZ=             -0.0000
 Hexadecapole moment (field-independent basis, Debye-Ang**3):
 XXXX=            -21.1615 YYYY=            -26.6474 ZZZZ=            -69.8004 XXXY=             -0.0000
 XXXZ=              0.0000 YYYX=             -0.0000 YYYZ=             -0.0000 ZZZX=              0.0000
 ZZZY=             -0.0000 XXYY=             -8.6691 XXZZ=            -15.9982 YYZZ=            -13.2871
 XXYZ=              0.0000 YYXZ=              0.0000 ZZXY=              0.0000
 N-N= 3.331388097801D+01 E-N=-2.479044471358D+02  KE= 7.778432510190D+01
 Symmetry AG   KE= 3.736030263326D+01
 Symmetry B1G  KE= 1.947314555872D-33
 Symmetry B2G  KE= 7.528544777409D-21
 Symmetry B3G  KE= 2.144396850622D+00
 Symmetry AU   KE= 4.620168467836D-33
 Symmetry B1U  KE= 3.439692664112D+01
 Symmetry B2U  KE= 1.880858600885D+00
 Symmetry B3U  KE= 2.001840376011D+00
  Exact polarizability:   0.000   0.000   0.000   0.000   0.000   0.000
 Approx polarizability:  20.796   0.000  23.502  -0.000  -0.000  42.579
 No NMR shielding tensors so no spin-rotation constants.
 Leave Link  601 at Mon Jun  1 23:45:42 2020, MaxMem= 12884901888 cpu:               3.3 elap:               0.3
 (Enter /project/qslin/software/g16/l701.exe)
 ... and contract with generalized density number  0.
 Compute integral second derivatives.
 Leave Link  701 at Mon Jun  1 23:45:43 2020, MaxMem= 12884901888 cpu:               6.8 elap:               0.5
 (Enter /project/qslin/software/g16/l702.exe)
 L702 exits ... SP integral derivatives will be done elsewhere.
 Leave Link  702 at Mon Jun  1 23:45:43 2020, MaxMem= 12884901888 cpu:               0.5 elap:               0.1
 (Enter /project/qslin/software/g16/l703.exe)
 Integral derivatives from FoFJK, PRISM(SPDF).
 Compute integral second derivatives, UseDBF=F ICtDFT=           0.
 Calling FoFJK, ICntrl=    100147 FMM=F ISym2X=1 I1Cent= 0 IOpClX= 0 NMat=1 NMatS=1 NMatT=0.
 FoFJK:  IHMeth= 1 ICntrl=  100147 DoSepK=F KAlg= 0 I1Cent=           0 FoldK=F
 IRaf=         0 NMat=       1 IRICut=       1 DoRegI=T DoRafI=F ISym2E= 1 IDoP0=0 IntGTp=1.
 FoFCou: FMM=F IPFlag=           0 FMFlag=      100000 FMFlg1=         800
         NFxFlg=           0 DoJE=F BraDBF=F KetDBF=F FulRan=T
         wScrn=  0.000000 ICntrl=    100147 IOpCl=  0 I1Cent=           0 NGrid=           0
         NMat0=    1 NMatS0=      1 NMatT0=    0 NMatD0=    1 NMtDS0=    0 NMtDT0=    0
 Petite list used in FoFCou.
 Leave Link  703 at Mon Jun  1 23:45:45 2020, MaxMem= 12884901888 cpu:              26.7 elap:               1.7
 (Enter /project/qslin/software/g16/l716.exe)
 Dipole        =-5.07613702D-17 2.11903253D-16 9.77893664D-16
 Polarizability= 0.00000000D+00 0.00000000D+00 0.00000000D+00
                 0.00000000D+00 0.00000000D+00 0.00000000D+00
 ***** Axes restored to original set *****
 -------------------------------------------------------------------
 Center     Atomic                   Forces (Hartrees/Bohr)
 Number     Number              X              Y              Z
 -------------------------------------------------------------------
      1        6           0.037852029    0.000000000    0.000000000
      2        6          -0.037852029    0.000000000   -0.000000000
      3        1          -0.009594633    0.008746778   -0.000000000
      4        1          -0.009594633   -0.008746778    0.000000000
      5        1           0.009594633   -0.008746778    0.000000000
      6        1           0.009594633    0.008746778   -0.000000000
 -------------------------------------------------------------------
 Cartesian Forces:  Max     0.037852029 RMS     0.014023402
 Force constants in Cartesian coordinates: 
                1             2             3             4             5 
      1  0.785838D+00
      2  0.000000D+00  0.716094D+00
      3  0.000000D+00  0.000000D+00  0.109187D+00
      4 -0.499210D+00  0.000000D+00  0.000000D+00  0.785838D+00
      5  0.000000D+00 -0.120701D+00  0.000000D+00  0.000000D+00  0.716094D+00
      6  0.000000D+00  0.000000D+00 -0.574675D-01  0.000000D+00  0.000000D+00
      7 -0.130094D+00  0.135082D+00  0.000000D+00 -0.132207D-01  0.313540D-01
      8  0.141152D+00 -0.301285D+00  0.000000D+00 -0.413286D-02  0.358835D-02
      9  0.000000D+00  0.000000D+00 -0.320578D-01  0.000000D+00  0.000000D+00
     10 -0.130094D+00 -0.135082D+00  0.000000D+00 -0.132207D-01 -0.313540D-01
     11 -0.141152D+00 -0.301285D+00  0.000000D+00  0.413286D-02  0.358835D-02
     12  0.000000D+00  0.000000D+00 -0.320578D-01  0.000000D+00  0.000000D+00
     13 -0.132207D-01  0.313540D-01  0.000000D+00 -0.130094D+00  0.135082D+00
     14 -0.413286D-02  0.358835D-02  0.000000D+00  0.141152D+00 -0.301285D+00
     15  0.000000D+00  0.000000D+00  0.619788D-02  0.000000D+00  0.000000D+00
     16 -0.132207D-01 -0.313540D-01  0.000000D+00 -0.130094D+00 -0.135082D+00
     17  0.413286D-02  0.358835D-02  0.000000D+00 -0.141152D+00 -0.301285D+00
     18  0.000000D+00  0.000000D+00  0.619788D-02  0.000000D+00  0.000000D+00
                6             7             8             9            10 
      6  0.109187D+00
      7  0.000000D+00  0.137485D+00
      8  0.000000D+00 -0.150876D+00  0.308164D+00
      9  0.619788D-02  0.000000D+00  0.000000D+00  0.190652D-01
     10  0.000000D+00  0.999916D-02  0.146195D-01  0.000000D+00  0.137485D+00
     11  0.000000D+00 -0.146195D-01 -0.132704D-01  0.000000D+00  0.150876D+00
     12  0.619788D-02  0.000000D+00  0.000000D+00  0.245733D-02  0.000000D+00
     13  0.000000D+00 -0.560038D-02 -0.851873D-03  0.000000D+00  0.143089D-02
     14  0.000000D+00 -0.851873D-03  0.151235D-02  0.000000D+00  0.888459D-04
     15 -0.320578D-01  0.000000D+00  0.000000D+00  0.129855D-01  0.000000D+00
     16  0.000000D+00  0.143089D-02  0.888459D-04  0.000000D+00 -0.560038D-02
     17  0.000000D+00 -0.888459D-04  0.129073D-02  0.000000D+00  0.851873D-03
     18 -0.320578D-01  0.000000D+00  0.000000D+00 -0.864812D-02  0.000000D+00
               11            12            13            14            15 
     11  0.308164D+00
     12  0.000000D+00  0.190652D-01
     13 -0.888459D-04  0.000000D+00  0.137485D+00
     14  0.129073D-02  0.000000D+00 -0.150876D+00  0.308164D+00
     15  0.000000D+00 -0.864812D-02  0.000000D+00  0.000000D+00  0.190652D-01
     16  0.851873D-03  0.000000D+00  0.999916D-02  0.146195D-01  0.000000D+00
     17  0.151235D-02  0.000000D+00 -0.146195D-01 -0.132704D-01  0.000000D+00
     18  0.000000D+00  0.129855D-01  0.000000D+00  0.000000D+00  0.245733D-02
               16            17            18 
     16  0.137485D+00
     17  0.150876D+00  0.308164D+00
     18  0.000000D+00  0.000000D+00  0.190652D-01
 FormGI is forming the generalized inverse of G from B-inverse, IUseBI=4.
 Force constants in internal coordinates: 
                1             2             3             4             5 
      1  0.560431D+00
      2  0.445513D-02  0.396141D+00
      3  0.445513D-02 -0.192574D-03  0.396141D+00
      4  0.445513D-02 -0.487540D-03  0.702897D-03  0.396141D+00
      5  0.445513D-02  0.702897D-03 -0.487540D-03 -0.192574D-03  0.396141D+00
      6  0.118006D-01  0.536732D-02 -0.115286D-01  0.438725D-02 -0.336284D-02
      7  0.118006D-01 -0.115286D-01  0.536732D-02 -0.336284D-02  0.438725D-02
      8 -0.236012D-01  0.616126D-02  0.616126D-02 -0.102441D-02 -0.102441D-02
      9  0.118006D-01  0.438725D-02 -0.336284D-02  0.536732D-02 -0.115286D-01
     10  0.118006D-01 -0.336284D-02  0.438725D-02 -0.115286D-01  0.536732D-02
     11 -0.236012D-01 -0.102441D-02 -0.102441D-02  0.616126D-02  0.616126D-02
     12  0.000000D+00  0.000000D+00  0.000000D+00  0.000000D+00  0.000000D+00
     13  0.000000D+00  0.000000D+00  0.000000D+00  0.000000D+00  0.000000D+00
     14  0.000000D+00  0.000000D+00  0.000000D+00  0.000000D+00  0.000000D+00
     15  0.000000D+00  0.000000D+00  0.000000D+00  0.000000D+00  0.000000D+00
                6             7             8             9            10 
      6  0.835816D-01
      7 -0.476531D-01  0.835816D-01
      8 -0.359285D-01 -0.359285D-01  0.718571D-01
      9  0.117892D-01 -0.100936D-01 -0.169560D-02  0.835816D-01
     10 -0.100936D-01  0.117892D-01 -0.169560D-02 -0.476531D-01  0.835816D-01
     11 -0.169560D-02 -0.169560D-02  0.339120D-02 -0.359285D-01 -0.359285D-01
     12  0.000000D+00  0.000000D+00  0.000000D+00  0.000000D+00  0.000000D+00
     13  0.000000D+00  0.000000D+00  0.000000D+00  0.000000D+00  0.000000D+00
     14  0.000000D+00  0.000000D+00  0.000000D+00  0.000000D+00  0.000000D+00
     15  0.000000D+00  0.000000D+00  0.000000D+00  0.000000D+00  0.000000D+00
               11            12            13            14            15 
     11  0.718571D-01
     12  0.000000D+00  0.342368D-01
     13  0.000000D+00  0.828623D-02  0.276060D-01
     14  0.000000D+00  0.828623D-02 -0.110336D-01  0.276060D-01
     15  0.000000D+00 -0.176644D-01  0.828623D-02  0.828623D-02  0.342368D-01
 Leave Link  716 at Mon Jun  1 23:45:46 2020, MaxMem= 12884901888 cpu:               0.8 elap:               0.1
 (Enter /project/qslin/software/g16/l103.exe)

 GradGradGradGradGradGradGradGradGradGradGradGradGradGradGradGradGradGrad
 Berny optimization.
 Red2BG is reusing G-inverse.
 Internal  Forces:  Max     0.018662764 RMS     0.008346790
 Search for a local minimum.
 Step number   1 out of a maximum of   25
 All quantities printed in internal units (Hartrees-Bohrs-Radians)
 RMS Force = .83468D-02 SwitMx=.10000D-02 MixMth= 1
 Mixed Optimization -- RFO/linear search
 Second derivative matrix not updated -- analytic derivatives used.
 The second derivative matrix:
                          R1        R2        R3        R4        R5
           R1           0.56043
           R2           0.00446   0.39614
           R3           0.00446  -0.00019   0.39614
           R4           0.00446  -0.00049   0.00070   0.39614
           R5           0.00446   0.00070  -0.00049  -0.00019   0.39614
           A1           0.01180   0.00537  -0.01153   0.00439  -0.00336
           A2           0.01180  -0.01153   0.00537  -0.00336   0.00439
           A3          -0.02360   0.00616   0.00616  -0.00102  -0.00102
           A4           0.01180   0.00439  -0.00336   0.00537  -0.01153
           A5           0.01180  -0.00336   0.00439  -0.01153   0.00537
           A6          -0.02360  -0.00102  -0.00102   0.00616   0.00616
           D1           0.00000   0.00000  -0.00000   0.00000  -0.00000
           D2           0.00000  -0.00000   0.00000   0.00000  -0.00000
           D3           0.00000   0.00000  -0.00000  -0.00000   0.00000
           D4           0.00000  -0.00000   0.00000  -0.00000   0.00000
                          A1        A2        A3        A4        A5
           A1           0.08358
           A2          -0.04765   0.08358
           A3          -0.03593  -0.03593   0.07186
           A4           0.01179  -0.01009  -0.00170   0.08358
           A5          -0.01009   0.01179  -0.00170  -0.04765   0.08358
           A6          -0.00170  -0.00170   0.00339  -0.03593  -0.03593
           D1           0.00000   0.00000  -0.00000  -0.00000  -0.00000
           D2           0.00000  -0.00000   0.00000  -0.00000   0.00000
           D3          -0.00000   0.00000   0.00000   0.00000  -0.00000
           D4          -0.00000  -0.00000   0.00000   0.00000   0.00000
                          A6        D1        D2        D3        D4
           A6           0.07186
           D1           0.00000   0.03424
           D2           0.00000   0.00829   0.02761
           D3           0.00000   0.00829  -0.01103   0.02761
           D4          -0.00000  -0.01766   0.00829   0.00829   0.03424
 ITU=  0
     Eigenvalues ---    0.03314   0.03864   0.05190   0.10217   0.10884
     Eigenvalues ---    0.10906   0.15063   0.39610   0.39626   0.39763
     Eigenvalues ---    0.39781   0.56452
 RFO step:  Lambda=-3.28678794D-03 EMin= 3.31449068D-02
 Linear search not attempted -- first point.
 Iteration  1 RMS(Cart)=  0.02466628 RMS(Int)=  0.00058420
 Iteration  2 RMS(Cart)=  0.00064013 RMS(Int)=  0.00000019
 Iteration  3 RMS(Cart)=  0.00000021 RMS(Int)=  0.00000000
 ITry= 1 IFail=0 DXMaxC= 4.59D-02 DCOld= 1.00D+10 DXMaxT= 3.00D-01 DXLimC= 3.00D+00 Rises=F
 ClnCor:  largest displacement from symmetrization is 1.01D-09 for atom     4.
 Variable       Old X    -DE/DX   Delta X   Delta X   Delta X     New X
                                 (Linear)    (Quad)   (Total)
    R1        2.56096  -0.01866   0.00000  -0.04129  -0.04129   2.51967
    R2        2.02201   0.01237   0.00000   0.03253   0.03253   2.05454
    R3        2.02201   0.01237   0.00000   0.03253   0.03253   2.05454
    R4        2.02201   0.01237   0.00000   0.03253   0.03253   2.05454
    R5        2.02201   0.01237   0.00000   0.03253   0.03253   2.05454
    A1        2.09440   0.00265   0.00000   0.02847   0.02847   2.12287
    A2        2.09440   0.00265   0.00000   0.02847   0.02847   2.12287
    A3        2.09440  -0.00531   0.00000  -0.05694  -0.05694   2.03745
    A4        2.09440   0.00265   0.00000   0.02847   0.02847   2.12287
    A5        2.09440   0.00265   0.00000   0.02847   0.02847   2.12287
    A6        2.09440  -0.00531   0.00000  -0.05694  -0.05694   2.03745
    D1        3.14159  -0.00000   0.00000   0.00000   0.00000   3.14159
    D2       -0.00000   0.00000   0.00000   0.00000   0.00000   0.00000
    D3        0.00000  -0.00000   0.00000   0.00000   0.00000   0.00000
    D4        3.14159   0.00000   0.00000   0.00000   0.00000   3.14159
         Item               Value     Threshold  Converged?
 Maximum Force            0.018663     0.000450     NO 
 RMS     Force            0.008347     0.000300     NO 
 Maximum Displacement     0.045856     0.001800     NO 
 RMS     Displacement     0.024868     0.001200     NO 
 Predicted change in Energy=-1.669137D-03
 Lowest energy point so far.  Saving SCF results.
 GradGradGradGradGradGradGradGradGradGradGradGradGradGradGradGradGradGrad

 Leave Link  103 at Mon Jun  1 23:45:46 2020, MaxMem= 12884901888 cpu:               1.3 elap:               0.1
 (Enter /project/qslin/software/g16/l202.exe)
                          Input orientation:                          
 ---------------------------------------------------------------------
 Center     Atomic      Atomic             Coordinates (Angstroms)
 Number     Number       Type             X           Y           Z
 ---------------------------------------------------------------------
      1          6           0       -0.666676    0.000000   -0.000000
      2          6           0        0.666676    0.000000    0.000000
      3          1           0       -1.236866    0.925700   -0.000000
      4          1           0       -1.236866   -0.925700   -0.000000
      5          1           0        1.236866   -0.925700    0.000000
      6          1           0        1.236866    0.925700    0.000000
 ---------------------------------------------------------------------
                    Distance matrix (angstroms):
                    1          2          3          4          5
     1  C    0.000000
     2  C    1.333352   0.000000
     3  H    1.087215   2.116694   0.000000
     4  H    1.087215   2.116694   1.851400   0.000000
     5  H    2.116694   1.087215   3.089827   2.473732   0.000000
     6  H    2.116694   1.087215   2.473732   3.089827   1.851400
                    6
     6  H    0.000000
 Stoichiometry    C2H4
 Framework group  D2H[C2"(C.C),SG(H4)]
 Deg. of freedom     3
 Full point group                 D2H     NOp   8
 RotChk:  IX=0 Diff= 9.42D-16
 Largest Abelian subgroup         D2H     NOp   8
 Largest concise Abelian subgroup D2      NOp   4
                         Standard orientation:                         
 ---------------------------------------------------------------------
 Center     Atomic      Atomic             Coordinates (Angstroms)
 Number     Number       Type             X           Y           Z
 ---------------------------------------------------------------------
      1          6           0        0.000000    0.000000    0.666676
      2          6           0        0.000000    0.000000   -0.666676
      3          1           0        0.000000    0.925700    1.236866
      4          1           0       -0.000000   -0.925700    1.236866
      5          1           0       -0.000000   -0.925700   -1.236866
      6          1           0        0.000000    0.925700   -1.236866
 ---------------------------------------------------------------------
 Rotational constants (GHZ):         146.2957056          30.0209728          24.9093814
 Leave Link  202 at Mon Jun  1 23:45:46 2020, MaxMem= 12884901888 cpu:               1.1 elap:               0.1
 (Enter /project/qslin/software/g16/l301.exe)
 Standard basis: 6-31+G(2df,p) (6D, 7F)
 Ernie: Thresh=  0.10000D-02 Tol=  0.10000D-05 Strict=F.
 There are    20 symmetry adapted cartesian basis functions of AG  symmetry.
 There are     4 symmetry adapted cartesian basis functions of B1G symmetry.
 There are     9 symmetry adapted cartesian basis functions of B2G symmetry.
 There are    12 symmetry adapted cartesian basis functions of B3G symmetry.
 There are     4 symmetry adapted cartesian basis functions of AU  symmetry.
 There are    20 symmetry adapted cartesian basis functions of B1U symmetry.
 There are    12 symmetry adapted cartesian basis functions of B2U symmetry.
 There are     9 symmetry adapted cartesian basis functions of B3U symmetry.
 There are    19 symmetry adapted basis functions of AG  symmetry.
 There are     4 symmetry adapted basis functions of B1G symmetry.
 There are     8 symmetry adapted basis functions of B2G symmetry.
 There are    11 symmetry adapted basis functions of B3G symmetry.
 There are     4 symmetry adapted basis functions of AU  symmetry.
 There are    19 symmetry adapted basis functions of B1U symmetry.
 There are    11 symmetry adapted basis functions of B2U symmetry.
 There are     8 symmetry adapted basis functions of B3U symmetry.
    84 basis functions,   124 primitive gaussians,    90 cartesian basis functions
     8 alpha electrons        8 beta electrons
       nuclear repulsion energy        33.3110971715 Hartrees.
 IExCor= 3226 DFT=T Ex+Corr=BMK ExCW=0 ScaHFX=  0.420000
 ScaDFX=  1.000000  1.000000  1.000000  1.000000 ScalE2=  1.000000  1.000000
 IRadAn=      5 IRanWt=     -1 IRanGd=            0 ICorTp=0 IEmpDi=  4
 NAtoms=    6 NActive=    6 NUniq=    2 SFac= 4.00D+00 NAtFMM=   60 NAOKFM=F Big=F
 Integral buffers will be    131072 words long.
 Raffenetti 2 integral format.
 Two-electron integral symmetry is turned on.
 Leave Link  301 at Mon Jun  1 23:45:46 2020, MaxMem= 12884901888 cpu:               0.8 elap:               0.1
 (Enter /project/qslin/software/g16/l302.exe)
 NPDir=0 NMtPBC=     1 NCelOv=     1 NCel=       1 NClECP=     1 NCelD=      1
         NCelK=      1 NCelE2=     1 NClLst=     1 CellRange=     0.0.
 One-electron integrals computed using PRISM.
 One-electron integral symmetry used in STVInt
 NBasis=    84 RedAO= T EigKep=  1.92D-04  NBF=    19     4     8    11     4    19    11     8
 NBsUse=    84 1.00D-06 EigRej= -1.00D+00 NBFU=    19     4     8    11     4    19    11     8
 Precomputing XC quadrature grid using
 IXCGrd= 4 IRadAn=           5 IRanWt=          -1 IRanGd=           0 AccXCQ= 0.00D+00.
 Generated NRdTot=       0 NPtTot=           0 NUsed=           0 NTot=          32
 NSgBfM=    90    90    90    90    90 MxSgAt=     6 MxSgA2=     6.
 Leave Link  302 at Mon Jun  1 23:45:46 2020, MaxMem= 12884901888 cpu:               3.0 elap:               0.2
 (Enter /project/qslin/software/g16/l303.exe)
 DipDrv:  MaxL=1.
 Leave Link  303 at Mon Jun  1 23:45:47 2020, MaxMem= 12884901888 cpu:               0.4 elap:               0.0
 (Enter /project/qslin/software/g16/l401.exe)
 Initial guess from the checkpoint file:  "DA-R2.chk"
 B after Tr=    -0.000000    0.000000    0.000000
         Rot=    1.000000   -0.000000   -0.000000    0.000000 Ang=   0.00 deg.
 Guess basis will be translated and rotated to current coordinates.
 JPrj=2 DoOrth=T DoCkMO=T.
 Initial guess orbital symmetries:
       Occupied  (AG) (B1U) (AG) (B1U) (B2U) (AG) (B3G) (B3U)
       Virtual   (B2G) (B1U) (AG) (B2U) (B3U) (B3G) (AG) (B2G)
                 (B1U) (AG) (B2U) (B1U) (B1U) (B3G) (AG) (B2U)
                 (B3U) (B1U) (AG) (B1G) (B2G) (B2U) (AG) (B3U)
                 (B1U) (B3G) (AU) (B3G) (B1U) (AG) (B2G) (B2U)
                 (AG) (B1U) (B3G) (B1U) (B1G) (AG) (B3U) (B2U)
                 (B2G) (AU) (B1U) (B3G) (AG) (B2U) (AG) (B3U) (B1U)
                 (AG) (B2U) (B1U) (B3U) (B3G) (B1G) (B2G) (B1U)
                 (B2G) (B2U) (AU) (B3G) (AG) (B3G) (B1G) (AU) (B3U)
                 (B1U) (B2G) (AG) (B2U) (B1U) (B3G) (AG) (B1U)
                 (AG) (B1U)
 The electronic state of the initial guess is 1-AG.
 Generating alternative initial guess.
 ExpMin= 4.38D-02 ExpMax= 3.05D+03 ExpMxC= 4.57D+02 IAcc=2 IRadAn=         4 AccDes= 0.00D+00
 Harris functional with IExCor= 1009 and IRadAn=       4 diagonalized for initial guess.
 HarFok:  IExCor= 1009 AccDes= 0.00D+00 IRadAn=         4 IDoV= 1 UseB2=F ITyADJ=14
 ICtDFT=  3500011 ScaDFX=  1.000000  1.000000  1.000000  1.000000
 FoFCou: FMM=F IPFlag=           0 FMFlag=      100000 FMFlg1=           0
         NFxFlg=           0 DoJE=T BraDBF=F KetDBF=T FulRan=T
         wScrn=  0.000000 ICntrl=       500 IOpCl=  0 I1Cent=   200000004 NGrid=           0
         NMat0=    1 NMatS0=      1 NMatT0=    0 NMatD0=    1 NMtDS0=    0 NMtDT0=    0
 Petite list used in FoFCou.
 Harris En= -78.5523546336635    
 Leave Link  401 at Mon Jun  1 23:45:47 2020, MaxMem= 12884901888 cpu:               4.7 elap:               0.3
 (Enter /project/qslin/software/g16/l502.exe)
 Keep R1 ints in memory in symmetry-blocked form, NReq=21004675.
 FoFCou: FMM=F IPFlag=           0 FMFlag=           0 FMFlg1=           0
         NFxFlg=           0 DoJE=F BraDBF=F KetDBF=F FulRan=T
         wScrn=  0.000000 ICntrl=       600 IOpCl=  0 I1Cent=           0 NGrid=           0
         NMat0=    1 NMatS0=   3570 NMatT0=    0 NMatD0=    1 NMtDS0=    0 NMtDT0=    0
 Petite list used in FoFCou.
 Closed shell SCF:
 Using DIIS extrapolation, IDIIS=  1040.
 NGot= 12884901888 LenX= 12884034857 LenY= 12884026316
 Requested convergence on RMS density matrix=1.00D-08 within 128 cycles.
 Requested convergence on MAX density matrix=1.00D-06.
 Requested convergence on             energy=1.00D-06.
 No special actions if energy rises.

 Cycle   1  Pass 1  IDiag  1:
 E= -78.5304431887730    
 DIIS: error= 2.88D-03 at cycle   1 NSaved=   1.
 NSaved= 1 IEnMin= 1 EnMin= -78.5304431887730     IErMin= 1 ErrMin= 2.88D-03
 ErrMax= 2.88D-03  0.00D+00 EMaxC= 1.00D-01 BMatC= 3.75D-04 BMatP= 3.75D-04
 IDIUse=3 WtCom= 9.71D-01 WtEn= 2.88D-02
 Coeff-Com:  0.100D+01
 Coeff-En:   0.100D+01
 Coeff:      0.100D+01
 Gap=     0.341 Goal=   None    Shift=    0.000
 GapD=    0.341 DampG=1.000 DampE=1.000 DampFc=1.0000 IDamp=-1.
 RMSDP=2.78D-04 MaxDP=4.05D-03              OVMax= 8.77D-03

 Cycle   2  Pass 1  IDiag  1:
 E= -78.5308982687559     Delta-E=       -0.000455079983 Rises=F Damp=F
 DIIS: error= 3.99D-04 at cycle   2 NSaved=   2.
 NSaved= 2 IEnMin= 2 EnMin= -78.5308982687559     IErMin= 2 ErrMin= 3.99D-04
 ErrMax= 3.99D-04  0.00D+00 EMaxC= 1.00D-01 BMatC= 8.12D-06 BMatP= 3.75D-04
 IDIUse=3 WtCom= 9.96D-01 WtEn= 3.99D-03
 Coeff-Com: -0.901D-02 0.101D+01
 Coeff-En:   0.000D+00 0.100D+01
 Coeff:     -0.898D-02 0.101D+01
 Gap=     0.339 Goal=   None    Shift=    0.000
 RMSDP=3.40D-05 MaxDP=7.05D-04 DE=-4.55D-04 OVMax= 1.65D-03

 Cycle   3  Pass 1  IDiag  1:
 E= -78.5309069102884     Delta-E=       -0.000008641532 Rises=F Damp=F
 DIIS: error= 1.47D-04 at cycle   3 NSaved=   3.
 NSaved= 3 IEnMin= 3 EnMin= -78.5309069102884     IErMin= 3 ErrMin= 1.47D-04
 ErrMax= 1.47D-04  0.00D+00 EMaxC= 1.00D-01 BMatC= 6.13D-07 BMatP= 8.12D-06
 IDIUse=3 WtCom= 9.99D-01 WtEn= 1.47D-03
 Coeff-Com: -0.120D-01 0.119D+00 0.893D+00
 Coeff-En:   0.000D+00 0.000D+00 0.100D+01
 Coeff:     -0.120D-01 0.119D+00 0.893D+00
 Gap=     0.339 Goal=   None    Shift=    0.000
 RMSDP=1.45D-05 MaxDP=3.37D-04 DE=-8.64D-06 OVMax= 4.92D-04

 Cycle   4  Pass 1  IDiag  1:
 E= -78.5309074988665     Delta-E=       -0.000000588578 Rises=F Damp=F
 DIIS: error= 6.95D-05 at cycle   4 NSaved=   4.
 NSaved= 4 IEnMin= 4 EnMin= -78.5309074988665     IErMin= 4 ErrMin= 6.95D-05
 ErrMax= 6.95D-05  0.00D+00 EMaxC= 1.00D-01 BMatC= 1.96D-07 BMatP= 6.13D-07
 IDIUse=1 WtCom= 1.00D+00 WtEn= 0.00D+00
 Coeff-Com: -0.483D-02-0.285D-02 0.361D+00 0.647D+00
 Coeff:     -0.483D-02-0.285D-02 0.361D+00 0.647D+00
 Gap=     0.339 Goal=   None    Shift=    0.000
 RMSDP=4.26D-06 MaxDP=8.02D-05 DE=-5.89D-07 OVMax= 2.04D-04

 Cycle   5  Pass 1  IDiag  1:
 E= -78.5309077163627     Delta-E=       -0.000000217496 Rises=F Damp=F
 DIIS: error= 8.02D-06 at cycle   5 NSaved=   5.
 NSaved= 5 IEnMin= 5 EnMin= -78.5309077163627     IErMin= 5 ErrMin= 8.02D-06
 ErrMax= 8.02D-06  0.00D+00 EMaxC= 1.00D-01 BMatC= 2.58D-09 BMatP= 1.96D-07
 IDIUse=1 WtCom= 1.00D+00 WtEn= 0.00D+00
 Coeff-Com:  0.311D-03-0.979D-02-0.657D-02 0.804D-01 0.936D+00
 Coeff:      0.311D-03-0.979D-02-0.657D-02 0.804D-01 0.936D+00
 Gap=     0.339 Goal=   None    Shift=    0.000
 RMSDP=1.12D-06 MaxDP=1.40D-05 DE=-2.17D-07 OVMax= 2.55D-05

 Cycle   6  Pass 1  IDiag  1:
 E= -78.5309077197881     Delta-E=       -0.000000003425 Rises=F Damp=F
 DIIS: error= 1.23D-06 at cycle   6 NSaved=   6.
 NSaved= 6 IEnMin= 6 EnMin= -78.5309077197881     IErMin= 6 ErrMin= 1.23D-06
 ErrMax= 1.23D-06  0.00D+00 EMaxC= 1.00D-01 BMatC= 3.24D-11 BMatP= 2.58D-09
 IDIUse=1 WtCom= 1.00D+00 WtEn= 0.00D+00
 Coeff-Com:  0.160D-03-0.209D-03-0.121D-01-0.165D-01 0.516D-01 0.977D+00
 Coeff:      0.160D-03-0.209D-03-0.121D-01-0.165D-01 0.516D-01 0.977D+00
 Gap=     0.339 Goal=   None    Shift=    0.000
 RMSDP=1.75D-07 MaxDP=2.05D-06 DE=-3.43D-09 OVMax= 5.74D-06

 Cycle   7  Pass 1  IDiag  1:
 E= -78.5309077198511     Delta-E=       -0.000000000063 Rises=F Damp=F
 DIIS: error= 7.82D-08 at cycle   7 NSaved=   7.
 NSaved= 7 IEnMin= 7 EnMin= -78.5309077198511     IErMin= 7 ErrMin= 7.82D-08
 ErrMax= 7.82D-08  0.00D+00 EMaxC= 1.00D-01 BMatC= 2.60D-13 BMatP= 3.24D-11
 IDIUse=1 WtCom= 1.00D+00 WtEn= 0.00D+00
 Coeff-Com: -0.688D-05 0.157D-03 0.311D-03-0.900D-03-0.161D-01-0.296D-01
 Coeff-Com:  0.105D+01
 Coeff:     -0.688D-05 0.157D-03 0.311D-03-0.900D-03-0.161D-01-0.296D-01
 Coeff:      0.105D+01
 Gap=     0.339 Goal=   None    Shift=    0.000
 RMSDP=3.16D-08 MaxDP=3.31D-07 DE=-6.30D-11 OVMax= 5.53D-07

 Cycle   8  Pass 1  IDiag  1:
 E= -78.5309077198517     Delta-E=       -0.000000000001 Rises=F Damp=F
 DIIS: error= 9.13D-09 at cycle   8 NSaved=   8.
 NSaved= 8 IEnMin= 8 EnMin= -78.5309077198517     IErMin= 8 ErrMin= 9.13D-09
 ErrMax= 9.13D-09  0.00D+00 EMaxC= 1.00D-01 BMatC= 1.34D-15 BMatP= 2.60D-13
 IDIUse=1 WtCom= 1.00D+00 WtEn= 0.00D+00
 Coeff-Com: -0.104D-05-0.145D-05 0.724D-04 0.139D-03 0.439D-03-0.599D-02
 Coeff-Com: -0.388D-01 0.104D+01
 Coeff:     -0.104D-05-0.145D-05 0.724D-04 0.139D-03 0.439D-03-0.599D-02
 Coeff:     -0.388D-01 0.104D+01
 Gap=     0.339 Goal=   None    Shift=    0.000
 RMSDP=2.75D-09 MaxDP=3.78D-08 DE=-5.97D-13 OVMax= 2.89D-08

 SCF Done:  E(RBMK) =  -78.5309077199     A.U. after    8 cycles
            NFock=  8  Conv=0.28D-08     -V/T= 2.0101
 KE= 7.774573532957D+01 PE=-2.478796009029D+02 EE= 5.829186068195D+01
 Leave Link  502 at Mon Jun  1 23:45:48 2020, MaxMem= 12884901888 cpu:               8.8 elap:               0.6
 (Enter /project/qslin/software/g16/l701.exe)
 ... and contract with generalized density number  0.
 Compute integral first derivatives.
 Leave Link  701 at Mon Jun  1 23:45:48 2020, MaxMem= 12884901888 cpu:               2.9 elap:               0.2
 (Enter /project/qslin/software/g16/l702.exe)
 L702 exits ... SP integral derivatives will be done elsewhere.
 Leave Link  702 at Mon Jun  1 23:45:48 2020, MaxMem= 12884901888 cpu:               0.7 elap:               0.1
 (Enter /project/qslin/software/g16/l703.exe)
 Integral derivatives from FoFJK, PRISM(SPDF).
 Compute integral first derivatives, UseDBF=F ICtDFT=           0.
 Calling FoFJK, ICntrl=      2127 FMM=F ISym2X=1 I1Cent= 0 IOpClX= 0 NMat=1 NMatS=1 NMatT=0.
 FoFJK:  IHMeth= 1 ICntrl=    2127 DoSepK=F KAlg= 0 I1Cent=           0 FoldK=F
 IRaf=         0 NMat=       1 IRICut=       1 DoRegI=T DoRafI=F ISym2E= 1 IDoP0=0 IntGTp=1.
 FoFCou: FMM=F IPFlag=           0 FMFlag=      100000 FMFlg1=         800
         NFxFlg=           0 DoJE=F BraDBF=F KetDBF=F FulRan=T
         wScrn=  0.000000 ICntrl=      2127 IOpCl=  0 I1Cent=           0 NGrid=           0
         NMat0=    1 NMatS0=      1 NMatT0=    0 NMatD0=    1 NMtDS0=    0 NMtDT0=    0
 Petite list used in FoFCou.
 Leave Link  703 at Mon Jun  1 23:45:49 2020, MaxMem= 12884901888 cpu:               9.3 elap:               0.6
 (Enter /project/qslin/software/g16/l716.exe)
 Dipole        =-5.05167644D-17 0.00000000D+00 8.88178420D-16
 ***** Axes restored to original set *****
 -------------------------------------------------------------------
 Center     Atomic                   Forces (Hartrees/Bohr)
 Number     Number              X              Y              Z
 -------------------------------------------------------------------
      1        6          -0.000341991   -0.000000000    0.000000000
      2        6           0.000341991   -0.000000000   -0.000000000
      3        1          -0.000425485    0.000520121   -0.000000000
      4        1          -0.000425485   -0.000520121    0.000000000
      5        1           0.000425485   -0.000520121    0.000000000
      6        1           0.000425485    0.000520121   -0.000000000
 -------------------------------------------------------------------
 Cartesian Forces:  Max     0.000520121 RMS     0.000336664
 Leave Link  716 at Mon Jun  1 23:45:50 2020, MaxMem= 12884901888 cpu:               0.9 elap:               0.1
 (Enter /project/qslin/software/g16/l103.exe)

 GradGradGradGradGradGradGradGradGradGradGradGradGradGradGradGradGradGrad
 Berny optimization.
 Using GEDIIS/GDIIS optimizer.
 FormGI is forming the generalized inverse of G from B-inverse, IUseBI=4.
 Internal  Forces:  Max     0.001192961 RMS     0.000464934
 Search for a local minimum.
 Step number   2 out of a maximum of   25
 All quantities printed in internal units (Hartrees-Bohrs-Radians)
 RMS Force = .46493D-03 SwitMx=.10000D-02 MixMth= 2
 Mixed Optimization -- En-DIIS/RFO-DIIS
 Update second derivatives using D2CorX and points    1    2
 DE= -1.67D-03 DEPred=-1.67D-03 R= 1.00D+00
 TightC=F SS=  1.41D+00  RLast= 1.25D-01 DXNew= 5.0454D-01 3.7547D-01
 Trust test= 1.00D+00 RLast= 1.25D-01 DXMaxT set to 3.75D-01
 The second derivative matrix:
                          R1        R2        R3        R4        R5
           R1           0.57645
           R2           0.00270   0.39209
           R3           0.00270  -0.00424   0.39209
           R4           0.00270  -0.00454  -0.00335   0.39209
           R5           0.00270  -0.00335  -0.00454  -0.00424   0.39209
           A1           0.01052   0.00506  -0.01183   0.00408  -0.00367
           A2           0.01052  -0.01183   0.00506  -0.00367   0.00408
           A3          -0.02104   0.00677   0.00677  -0.00041  -0.00041
           A4           0.01052   0.00408  -0.00367   0.00506  -0.01183
           A5           0.01052  -0.00367   0.00408  -0.01183   0.00506
           A6          -0.02104  -0.00041  -0.00041   0.00677   0.00677
           D1           0.00000   0.00000  -0.00000   0.00000  -0.00000
           D2           0.00000  -0.00000   0.00000   0.00000  -0.00000
           D3           0.00000   0.00000  -0.00000  -0.00000   0.00000
           D4           0.00000  -0.00000   0.00000  -0.00000   0.00000
                          A1        A2        A3        A4        A5
           A1           0.08364
           A2          -0.04760   0.08364
           A3          -0.03604  -0.03604   0.07208
           A4           0.01185  -0.01004  -0.00181   0.08364
           A5          -0.01004   0.01185  -0.00181  -0.04760   0.08364
           A6          -0.00181  -0.00181   0.00361  -0.03604  -0.03604
           D1           0.00000   0.00000  -0.00000  -0.00000  -0.00000
           D2           0.00000  -0.00000   0.00000  -0.00000   0.00000
           D3          -0.00000   0.00000  -0.00000   0.00000  -0.00000
           D4          -0.00000  -0.00000   0.00000   0.00000   0.00000
                          A6        D1        D2        D3        D4
           A6           0.07208
           D1           0.00000   0.03424
           D2           0.00000   0.00829   0.02761
           D3          -0.00000   0.00829  -0.01103   0.02761
           D4          -0.00000  -0.01766   0.00829   0.00829   0.03424
 ITU=  1  0
 Use linear search instead of GDIIS.
     Eigenvalues ---    0.03314   0.03864   0.05190   0.10217   0.10906
     Eigenvalues ---    0.11021   0.15063   0.38033   0.39626   0.39763
     Eigenvalues ---    0.39781   0.57941
 RFO step:  Lambda=-6.28725854D-06 EMin= 3.31449068D-02
 Quartic linear search produced a step of  0.01810.
 Iteration  1 RMS(Cart)=  0.00152815 RMS(Int)=  0.00000037
 Iteration  2 RMS(Cart)=  0.00000043 RMS(Int)=  0.00000000
 ITry= 1 IFail=0 DXMaxC= 2.70D-03 DCOld= 1.00D+10 DXMaxT= 3.75D-01 DXLimC= 3.00D+00 Rises=F
 ClnCor:  largest displacement from symmetrization is 3.75D-11 for atom     5.
 Variable       Old X    -DE/DX   Delta X   Delta X   Delta X     New X
                                 (Linear)    (Quad)   (Total)
    R1        2.51967   0.00119  -0.00075   0.00268   0.00194   2.52161
    R2        2.05454   0.00067   0.00059   0.00117   0.00176   2.05630
    R3        2.05454   0.00067   0.00059   0.00117   0.00176   2.05630
    R4        2.05454   0.00067   0.00059   0.00117   0.00176   2.05630
    R5        2.05454   0.00067   0.00059   0.00117   0.00176   2.05630
    A1        2.12287   0.00006   0.00052  -0.00005   0.00046   2.12333
    A2        2.12287   0.00006   0.00052  -0.00005   0.00046   2.12333
    A3        2.03745  -0.00012  -0.00103   0.00011  -0.00092   2.03653
    A4        2.12287   0.00006   0.00052  -0.00005   0.00046   2.12333
    A5        2.12287   0.00006   0.00052  -0.00005   0.00046   2.12333
    A6        2.03745  -0.00012  -0.00103   0.00011  -0.00092   2.03653
    D1        3.14159  -0.00000   0.00000  -0.00000   0.00000   3.14159
    D2       -0.00000   0.00000   0.00000  -0.00000   0.00000   0.00000
    D3        0.00000  -0.00000   0.00000  -0.00000   0.00000   0.00000
    D4        3.14159   0.00000   0.00000  -0.00000   0.00000   3.14159
         Item               Value     Threshold  Converged?
 Maximum Force            0.001193     0.000450     NO 
 RMS     Force            0.000465     0.000300     NO 
 Maximum Displacement     0.002699     0.001800     NO 
 RMS     Displacement     0.001528     0.001200     NO 
 Predicted change in Energy=-3.670813D-06
 Lowest energy point so far.  Saving SCF results.
 GradGradGradGradGradGradGradGradGradGradGradGradGradGradGradGradGradGrad

 Leave Link  103 at Mon Jun  1 23:45:50 2020, MaxMem= 12884901888 cpu:               1.0 elap:               0.1
 (Enter /project/qslin/software/g16/l202.exe)
                          Input orientation:                          
 ---------------------------------------------------------------------
 Center     Atomic      Atomic             Coordinates (Angstroms)
 Number     Number       Type             X           Y           Z
 ---------------------------------------------------------------------
      1          6           0       -0.667188    0.000000   -0.000000
      2          6           0        0.667188   -0.000000    0.000000
      3          1           0       -1.238294    0.926231   -0.000000
      4          1           0       -1.238294   -0.926231   -0.000000
      5          1           0        1.238294   -0.926231    0.000000
      6          1           0        1.238294    0.926231    0.000000
 ---------------------------------------------------------------------
                    Distance matrix (angstroms):
                    1          2          3          4          5
     1  C    0.000000
     2  C    1.334376   0.000000
     3  H    1.088148   2.118671   0.000000
     4  H    1.088148   2.118671   1.852462   0.000000
     5  H    2.118671   1.088148   3.092750   2.476588   0.000000
     6  H    2.118671   1.088148   2.476588   3.092750   1.852462
                    6
     6  H    0.000000
 Stoichiometry    C2H4
 Framework group  D2H[C2"(C.C),SG(H4)]
 Deg. of freedom     3
 Full point group                 D2H     NOp   8
 RotChk:  IX=0 Diff= 1.31D-16
 Largest Abelian subgroup         D2H     NOp   8
 Largest concise Abelian subgroup D2      NOp   4
                         Standard orientation:                         
 ---------------------------------------------------------------------
 Center     Atomic      Atomic             Coordinates (Angstroms)
 Number     Number       Type             X           Y           Z
 ---------------------------------------------------------------------
      1          6           0        0.000000   -0.000000    0.667188
      2          6           0        0.000000   -0.000000   -0.667188
      3          1           0        0.000000    0.926231    1.238294
      4          1           0       -0.000000   -0.926231    1.238294
      5          1           0       -0.000000   -0.926231   -1.238294
      6          1           0        0.000000    0.926231   -1.238294
 ---------------------------------------------------------------------
 Rotational constants (GHZ):         146.1279707          29.9664289          24.8669660
 Leave Link  202 at Mon Jun  1 23:45:50 2020, MaxMem= 12884901888 cpu:               0.3 elap:               0.0
 (Enter /project/qslin/software/g16/l301.exe)
 Standard basis: 6-31+G(2df,p) (6D, 7F)
 Ernie: Thresh=  0.10000D-02 Tol=  0.10000D-05 Strict=F.
 There are    20 symmetry adapted cartesian basis functions of AG  symmetry.
 There are     4 symmetry adapted cartesian basis functions of B1G symmetry.
 There are     9 symmetry adapted cartesian basis functions of B2G symmetry.
 There are    12 symmetry adapted cartesian basis functions of B3G symmetry.
 There are     4 symmetry adapted cartesian basis functions of AU  symmetry.
 There are    20 symmetry adapted cartesian basis functions of B1U symmetry.
 There are    12 symmetry adapted cartesian basis functions of B2U symmetry.
 There are     9 symmetry adapted cartesian basis functions of B3U symmetry.
 There are    19 symmetry adapted basis functions of AG  symmetry.
 There are     4 symmetry adapted basis functions of B1G symmetry.
 There are     8 symmetry adapted basis functions of B2G symmetry.
 There are    11 symmetry adapted basis functions of B3G symmetry.
 There are     4 symmetry adapted basis functions of AU  symmetry.
 There are    19 symmetry adapted basis functions of B1U symmetry.
 There are    11 symmetry adapted basis functions of B2U symmetry.
 There are     8 symmetry adapted basis functions of B3U symmetry.
    84 basis functions,   124 primitive gaussians,    90 cartesian basis functions
     8 alpha electrons        8 beta electrons
       nuclear repulsion energy        33.2833746391 Hartrees.
 IExCor= 3226 DFT=T Ex+Corr=BMK ExCW=0 ScaHFX=  0.420000
 ScaDFX=  1.000000  1.000000  1.000000  1.000000 ScalE2=  1.000000  1.000000
 IRadAn=      5 IRanWt=     -1 IRanGd=            0 ICorTp=0 IEmpDi=  4
 NAtoms=    6 NActive=    6 NUniq=    2 SFac= 4.00D+00 NAtFMM=   60 NAOKFM=F Big=F
 Integral buffers will be    131072 words long.
 Raffenetti 2 integral format.
 Two-electron integral symmetry is turned on.
 Leave Link  301 at Mon Jun  1 23:45:50 2020, MaxMem= 12884901888 cpu:               0.9 elap:               0.1
 (Enter /project/qslin/software/g16/l302.exe)
 NPDir=0 NMtPBC=     1 NCelOv=     1 NCel=       1 NClECP=     1 NCelD=      1
         NCelK=      1 NCelE2=     1 NClLst=     1 CellRange=     0.0.
 One-electron integrals computed using PRISM.
 One-electron integral symmetry used in STVInt
 NBasis=    84 RedAO= T EigKep=  1.92D-04  NBF=    19     4     8    11     4    19    11     8
 NBsUse=    84 1.00D-06 EigRej= -1.00D+00 NBFU=    19     4     8    11     4    19    11     8
 Precomputing XC quadrature grid using
 IXCGrd= 4 IRadAn=           5 IRanWt=          -1 IRanGd=           0 AccXCQ= 0.00D+00.
 Generated NRdTot=       0 NPtTot=           0 NUsed=           0 NTot=          32
 NSgBfM=    90    90    90    90    90 MxSgAt=     6 MxSgA2=     6.
 Leave Link  302 at Mon Jun  1 23:45:51 2020, MaxMem= 12884901888 cpu:               2.5 elap:               0.2
 (Enter /project/qslin/software/g16/l303.exe)
 DipDrv:  MaxL=1.
 Leave Link  303 at Mon Jun  1 23:45:51 2020, MaxMem= 12884901888 cpu:               0.9 elap:               0.1
 (Enter /project/qslin/software/g16/l401.exe)
 Initial guess from the checkpoint file:  "DA-R2.chk"
 B after Tr=     0.000000    0.000000   -0.000000
         Rot=    1.000000    0.000000    0.000000   -0.000000 Ang=   0.00 deg.
 Guess basis will be translated and rotated to current coordinates.
 JPrj=2 DoOrth=T DoCkMO=T.
 Initial guess orbital symmetries:
       Occupied  (AG) (B1U) (AG) (B1U) (B2U) (AG) (B3G) (B3U)
       Virtual   (B2G) (B1U) (AG) (B2U) (B3U) (B3G) (AG) (B2G)
                 (B1U) (AG) (B2U) (B1U) (B1U) (B3G) (AG) (B2U)
                 (B3U) (B1U) (AG) (B1G) (B2G) (B2U) (AG) (B1U)
                 (B3U) (B3G) (AU) (B3G) (B1U) (AG) (B2G) (AG) (B2U)
                 (B1U) (B3G) (B1U) (B1G) (AG) (B2U) (B3U) (B2G)
                 (AU) (B3G) (B1U) (AG) (B2U) (AG) (B3U) (B1U) (AG)
                 (B2U) (B3U) (B1U) (B3G) (B1G) (B2G) (B1U) (B2G)
                 (B2U) (B3G) (AU) (AG) (B3G) (B1G) (AU) (B3U) (B1U)
                 (B2G) (AG) (B2U) (B1U) (B3G) (AG) (B1U) (AG) (B1U)
 The electronic state of the initial guess is 1-AG.
 Leave Link  401 at Mon Jun  1 23:45:51 2020, MaxMem= 12884901888 cpu:               1.2 elap:               0.1
 (Enter /project/qslin/software/g16/l502.exe)
 Keep R1 ints in memory in symmetry-blocked form, NReq=21004675.
 FoFCou: FMM=F IPFlag=           0 FMFlag=           0 FMFlg1=           0
         NFxFlg=           0 DoJE=F BraDBF=F KetDBF=F FulRan=T
         wScrn=  0.000000 ICntrl=       600 IOpCl=  0 I1Cent=           0 NGrid=           0
         NMat0=    1 NMatS0=   3570 NMatT0=    0 NMatD0=    1 NMtDS0=    0 NMtDT0=    0
 Petite list used in FoFCou.
 Closed shell SCF:
 Using DIIS extrapolation, IDIIS=  1040.
 NGot= 12884901888 LenX= 12884034857 LenY= 12884026316
 Requested convergence on RMS density matrix=1.00D-08 within 128 cycles.
 Requested convergence on MAX density matrix=1.00D-06.
 Requested convergence on             energy=1.00D-06.
 No special actions if energy rises.

 Cycle   1  Pass 1  IDiag  1:
 E= -78.5309105654081    
 DIIS: error= 1.18D-04 at cycle   1 NSaved=   1.
 NSaved= 1 IEnMin= 1 EnMin= -78.5309105654081     IErMin= 1 ErrMin= 1.18D-04
 ErrMax= 1.18D-04  0.00D+00 EMaxC= 1.00D-01 BMatC= 7.83D-07 BMatP= 7.83D-07
 IDIUse=3 WtCom= 9.99D-01 WtEn= 1.18D-03
 Coeff-Com:  0.100D+01
 Coeff-En:   0.100D+01
 Coeff:      0.100D+01
 Gap=     0.338 Goal=   None    Shift=    0.000
 RMSDP=1.19D-05 MaxDP=2.46D-04              OVMax= 3.85D-04

 Cycle   2  Pass 1  IDiag  1:
 E= -78.5309111665444     Delta-E=       -0.000000601136 Rises=F Damp=F
 DIIS: error= 6.72D-05 at cycle   2 NSaved=   2.
 NSaved= 2 IEnMin= 2 EnMin= -78.5309111665444     IErMin= 2 ErrMin= 6.72D-05
 ErrMax= 6.72D-05  0.00D+00 EMaxC= 1.00D-01 BMatC= 1.85D-07 BMatP= 7.83D-07
 IDIUse=1 WtCom= 1.00D+00 WtEn= 0.00D+00
 Coeff-Com:  0.275D+00 0.725D+00
 Coeff:      0.275D+00 0.725D+00
 Gap=     0.339 Goal=   None    Shift=    0.000
 RMSDP=5.13D-06 MaxDP=1.16D-04 DE=-6.01D-07 OVMax= 1.78D-04

 Cycle   3  Pass 1  IDiag  1:
 E= -78.5309113340967     Delta-E=       -0.000000167552 Rises=F Damp=F
 DIIS: error= 2.39D-05 at cycle   3 NSaved=   3.
 NSaved= 3 IEnMin= 3 EnMin= -78.5309113340967     IErMin= 3 ErrMin= 2.39D-05
 ErrMax= 2.39D-05  0.00D+00 EMaxC= 1.00D-01 BMatC= 2.17D-08 BMatP= 1.85D-07
 IDIUse=1 WtCom= 1.00D+00 WtEn= 0.00D+00
 Coeff-Com: -0.760D-02 0.247D+00 0.761D+00
 Coeff:     -0.760D-02 0.247D+00 0.761D+00
 Gap=     0.339 Goal=   None    Shift=    0.000
 RMSDP=1.53D-06 MaxDP=3.36D-05 DE=-1.68D-07 OVMax= 5.06D-05

 Cycle   4  Pass 1  IDiag  1:
 E= -78.5309113581181     Delta-E=       -0.000000024021 Rises=F Damp=F
 DIIS: error= 1.55D-06 at cycle   4 NSaved=   4.
 NSaved= 4 IEnMin= 4 EnMin= -78.5309113581181     IErMin= 4 ErrMin= 1.55D-06
 ErrMax= 1.55D-06  0.00D+00 EMaxC= 1.00D-01 BMatC= 6.95D-11 BMatP= 2.17D-08
 IDIUse=1 WtCom= 1.00D+00 WtEn= 0.00D+00
 Coeff-Com: -0.292D-02 0.346D-02 0.581D-01 0.941D+00
 Coeff:     -0.292D-02 0.346D-02 0.581D-01 0.941D+00
 Gap=     0.339 Goal=   None    Shift=    0.000
 RMSDP=1.14D-07 MaxDP=1.75D-06 DE=-2.40D-08 OVMax= 2.58D-06

 Cycle   5  Pass 1  IDiag  1:
 E= -78.5309113581894     Delta-E=       -0.000000000071 Rises=F Damp=F
 DIIS: error= 1.99D-07 at cycle   5 NSaved=   5.
 NSaved= 5 IEnMin= 5 EnMin= -78.5309113581894     IErMin= 5 ErrMin= 1.99D-07
 ErrMax= 1.99D-07  0.00D+00 EMaxC= 1.00D-01 BMatC= 1.63D-12 BMatP= 6.95D-11
 IDIUse=1 WtCom= 1.00D+00 WtEn= 0.00D+00
 Coeff-Com: -0.210D-03-0.538D-02-0.731D-02 0.116D+00 0.897D+00
 Coeff:     -0.210D-03-0.538D-02-0.731D-02 0.116D+00 0.897D+00
 Gap=     0.339 Goal=   None    Shift=    0.000
 RMSDP=1.82D-08 MaxDP=2.45D-07 DE=-7.13D-11 OVMax= 4.47D-07

 Cycle   6  Pass 1  IDiag  1:
 E= -78.5309113581910     Delta-E=       -0.000000000002 Rises=F Damp=F
 DIIS: error= 2.01D-08 at cycle   6 NSaved=   6.
 NSaved= 6 IEnMin= 6 EnMin= -78.5309113581910     IErMin= 6 ErrMin= 2.01D-08
 ErrMax= 2.01D-08  0.00D+00 EMaxC= 1.00D-01 BMatC= 1.28D-14 BMatP= 1.63D-12
 IDIUse=1 WtCom= 1.00D+00 WtEn= 0.00D+00
 Coeff-Com:  0.450D-04-0.156D-03-0.971D-03-0.157D-01-0.206D-01 0.104D+01
 Coeff:      0.450D-04-0.156D-03-0.971D-03-0.157D-01-0.206D-01 0.104D+01
 Gap=     0.339 Goal=   None    Shift=    0.000
 RMSDP=3.72D-09 MaxDP=4.57D-08 DE=-1.63D-12 OVMax= 7.41D-08

 SCF Done:  E(RBMK) =  -78.5309113582     A.U. after    6 cycles
            NFock=  6  Conv=0.37D-08     -V/T= 2.0102
 KE= 7.773768587028D+01 PE=-2.478180898856D+02 EE= 5.826611801805D+01
 Leave Link  502 at Mon Jun  1 23:45:51 2020, MaxMem= 12884901888 cpu:               8.1 elap:               0.5
 (Enter /project/qslin/software/g16/l701.exe)
 ... and contract with generalized density number  0.
 Compute integral first derivatives.
 Leave Link  701 at Mon Jun  1 23:45:52 2020, MaxMem= 12884901888 cpu:               3.0 elap:               0.2
 (Enter /project/qslin/software/g16/l702.exe)
 L702 exits ... SP integral derivatives will be done elsewhere.
 Leave Link  702 at Mon Jun  1 23:45:52 2020, MaxMem= 12884901888 cpu:               0.4 elap:               0.0
 (Enter /project/qslin/software/g16/l703.exe)
 Integral derivatives from FoFJK, PRISM(SPDF).
 Compute integral first derivatives, UseDBF=F ICtDFT=           0.
 Calling FoFJK, ICntrl=      2127 FMM=F ISym2X=1 I1Cent= 0 IOpClX= 0 NMat=1 NMatS=1 NMatT=0.
 FoFJK:  IHMeth= 1 ICntrl=    2127 DoSepK=F KAlg= 0 I1Cent=           0 FoldK=F
 IRaf=         0 NMat=       1 IRICut=       1 DoRegI=T DoRafI=F ISym2E= 1 IDoP0=0 IntGTp=1.
 FoFCou: FMM=F IPFlag=           0 FMFlag=      100000 FMFlg1=         800
         NFxFlg=           0 DoJE=F BraDBF=F KetDBF=F FulRan=T
         wScrn=  0.000000 ICntrl=      2127 IOpCl=  0 I1Cent=           0 NGrid=           0
         NMat0=    1 NMatS0=      1 NMatT0=    0 NMatD0=    1 NMtDS0=    0 NMtDT0=    0
 Petite list used in FoFCou.
 Leave Link  703 at Mon Jun  1 23:45:52 2020, MaxMem= 12884901888 cpu:               9.2 elap:               0.6
 (Enter /project/qslin/software/g16/l716.exe)
 Dipole        =-5.06542624D-17 2.22044605D-16 0.00000000D+00
 ***** Axes restored to original set *****
 -------------------------------------------------------------------
 Center     Atomic                   Forces (Hartrees/Bohr)
 Number     Number              X              Y              Z
 -------------------------------------------------------------------
      1        6           0.000124386   -0.000000000    0.000000000
      2        6          -0.000124386   -0.000000000   -0.000000000
      3        1          -0.000007895    0.000023561   -0.000000000
      4        1          -0.000007895   -0.000023561    0.000000000
      5        1           0.000007895   -0.000023561    0.000000000
      6        1           0.000007895    0.000023561   -0.000000000
 -------------------------------------------------------------------
 Cartesian Forces:  Max     0.000124386 RMS     0.000043085
 Leave Link  716 at Mon Jun  1 23:45:53 2020, MaxMem= 12884901888 cpu:               1.1 elap:               0.1
 (Enter /project/qslin/software/g16/l103.exe)

 GradGradGradGradGradGradGradGradGradGradGradGradGradGradGradGradGradGrad
 Berny optimization.
[...]
                    6
     6  H    0.000000
 Stoichiometry    C2H4
 Framework group  D2H[C2"(C.C),SG(H4)]
 Deg. of freedom     3
 Full point group                 D2H     NOp   8
 RotChk:  IX=0 Diff= 3.50D-16
 Largest Abelian subgroup         D2H     NOp   8
 Largest concise Abelian subgroup D2      NOp   4
                         Standard orientation:                         
 ---------------------------------------------------------------------
 Center     Atomic      Atomic             Coordinates (Angstroms)
 Number     Number       Type             X           Y           Z
 ---------------------------------------------------------------------
      1          6           0        0.000000    0.000000    0.667188
      2          6           0        0.000000   -0.000000   -0.667188
      3          1           0       -0.000000    0.926231    1.238294
      4          1           0       -0.000000   -0.926231    1.238294
      5          1           0       -0.000000   -0.926231   -1.238294
      6          1           0        0.000000    0.926231   -1.238294
 ---------------------------------------------------------------------
 Rotational constants (GHZ):         146.1279707          29.9664289          24.8669660
 Leave Link  202 at Mon Jun  1 23:46:20 2020, MaxMem= 12884901888 cpu:               0.7 elap:               0.1
 (Enter /project/qslin/software/g16/l301.exe)
 Standard basis: GFHFB4 (5D, 7F)
 Ernie: Thresh=  0.10000D-02 Tol=  0.10000D-05 Strict=F.
 Ernie:  6 primitive shells out of 106 were deleted.
 There are    44 symmetry adapted cartesian basis functions of AG  symmetry.
 There are    12 symmetry adapted cartesian basis functions of B1G symmetry.
 There are    21 symmetry adapted cartesian basis functions of B2G symmetry.
 There are    29 symmetry adapted cartesian basis functions of B3G symmetry.
 There are    12 symmetry adapted cartesian basis functions of AU  symmetry.
 There are    44 symmetry adapted cartesian basis functions of B1U symmetry.
 There are    29 symmetry adapted cartesian basis functions of B2U symmetry.
 There are    21 symmetry adapted cartesian basis functions of B3U symmetry.
 There are    35 symmetry adapted basis functions of AG  symmetry.
 There are    11 symmetry adapted basis functions of B1G symmetry.
 There are    18 symmetry adapted basis functions of B2G symmetry.
 There are    25 symmetry adapted basis functions of B3G symmetry.
 There are    11 symmetry adapted basis functions of AU  symmetry.
 There are    35 symmetry adapted basis functions of B1U symmetry.
 There are    25 symmetry adapted basis functions of B2U symmetry.
 There are    18 symmetry adapted basis functions of B3U symmetry.
   178 basis functions,   258 primitive gaussians,   212 cartesian basis functions
     8 alpha electrons        8 beta electrons
       nuclear repulsion energy        33.2833746391 Hartrees.
 IExCor=    0 DFT=F Ex=HF Corr=None ExCW=0 ScaHFX=  1.000000
 ScaDFX=  1.000000  1.000000  1.000000  1.000000 ScalE2=  1.000000  1.000000
 IRadAn=      5 IRanWt=     -1 IRanGd=            0 ICorTp=0 IEmpDi=  4
 NAtoms=    6 NActive=    6 NUniq=    2 SFac= 4.00D+00 NAtFMM=   60 NAOKFM=F Big=F
 Integral buffers will be    131072 words long.
 Raffenetti 1 integral format.
 Two-electron integral symmetry is turned on.
 Leave Link  301 at Mon Jun  1 23:46:20 2020, MaxMem= 12884901888 cpu:               0.9 elap:               0.1
 (Enter /project/qslin/software/g16/l302.exe)
 NPDir=0 NMtPBC=     1 NCelOv=     1 NCel=       1 NClECP=     1 NCelD=      1
         NCelK=      1 NCelE2=     1 NClLst=     1 CellRange=     0.0.
 One-electron integrals computed using PRISM.
 One-electron integral symmetry used in STVInt
 NBasis=   178 RedAO= T EigKep=  1.23D-04  NBF=    35    11    18    25    11    35    25    18
 NBsUse=   178 1.00D-06 EigRej= -1.00D+00 NBFU=    35    11    18    25    11    35    25    18
 Leave Link  302 at Mon Jun  1 23:46:20 2020, MaxMem= 12884901888 cpu:               3.4 elap:               0.2
 (Enter /project/qslin/software/g16/l303.exe)
 DipDrv:  MaxL=1.
 Leave Link  303 at Mon Jun  1 23:46:20 2020, MaxMem= 12884901888 cpu:               0.5 elap:               0.1
 (Enter /project/qslin/software/g16/l401.exe)
 Initial guess from the checkpoint file:  "DA-R2.chk"
 B after Tr=    -0.000000    0.000000   -0.000000
         Rot=    1.000000   -0.000000    0.000000    0.000000 Ang=   0.00 deg.
 Guess basis will be translated and rotated to current coordinates.
 JPrj=2 DoOrth=T DoCkMO=T.
 Initial guess orbital symmetries:
       Occupied  (AG) (B1U) (AG) (B1U) (B2U) (AG) (B3G) (B3U)
       Virtual   (B1U) (AG) (B2U) (B2G) (B3U) (B3G) (AG) (B2G)
                 (B1U) (AG) (B2U) (B1U) (B3G) (B1U) (AG) (B2U)
                 (B3U) (AG) (B2G) (B2U) (B1U) (B1G) (AG) (B3G)
                 (B1U) (B1U) (B3G) (B3U) (AU) (AG) (B2U) (B3G)
                 (B2G) (AG) (B1U) (B1U) (B1G) (B2U) (B3U) (B2G)
                 (B3G) (AG) (B1U) (AU) (AG) (B3U) (B2U) (B2U) (B2G)
                 (AG) (B2U) (AG) (B1U) (B3G) (B1U) (B3U) (B3G)
                 (B1G) (AG) (B1U) (B3U) (B3G) (AU) (B2G) (B2U)
                 (B1G) (AG) (B3G) (B2G) (B1U) (B3U) (B1U) (B2U)
                 (AG) (AU) (B1U) (AG) (B2U) (B2G) (B3G) (B3G) (B1U)
                 (AG) (B1U) (AG) (AG) (AG) (AG) (AG) (AG) (AG)
                 (AG) (AG) (AG) (AG) (AG) (AG) (AG) (AG) (B1G)
                 (B1G) (B1G) (B1G) (B1G) (B1G) (B1G) (B2G) (B2G)
                 (B2G) (B2G) (B2G) (B2G) (B2G) (B2G) (B2G) (B3G)
                 (B3G) (B3G) (B3G) (B3G) (B3G) (B3G) (B3G) (B3G)
                 (B3G) (B3G) (B3G) (AU) (AU) (AU) (AU) (AU) (AU)
                 (AU) (B1U) (B1U) (B1U) (B1U) (B1U) (B1U) (B1U)
                 (B1U) (B1U) (B1U) (B1U) (B1U) (B1U) (B1U) (B1U)
                 (B2U) (B2U) (B2U) (B2U) (B2U) (B2U) (B2U) (B2U)
                 (B2U) (B2U) (B2U) (B2U) (B3U) (B3U) (B3U) (B3U)
                 (B3U) (B3U) (B3U) (B3U) (B3U)
 The electronic state of the initial guess is 1-AG.
 Leave Link  401 at Mon Jun  1 23:46:20 2020, MaxMem= 12884901888 cpu:               1.5 elap:               0.1
 (Enter /project/qslin/software/g16/l502.exe)
 Keep R1 ints in memory in symmetry-blocked form, NReq=145159107.
 FoFCou: FMM=F IPFlag=           0 FMFlag=           0 FMFlg1=           0
         NFxFlg=           0 DoJE=F BraDBF=F KetDBF=F FulRan=T
         wScrn=  0.000000 ICntrl=       600 IOpCl=  0 I1Cent=           0 NGrid=           0
         NMat0=    1 NMatS0=  15931 NMatT0=    0 NMatD0=    1 NMtDS0=    0 NMtDT0=    0
 Petite list used in FoFCou.
 Closed shell SCF:
 Using DIIS extrapolation, IDIIS=  1040.
 NGot= 12884901888 LenX= 12868609824 LenY= 12868564439
 Requested convergence on RMS density matrix=1.00D-08 within 128 cycles.
 Requested convergence on MAX density matrix=1.00D-06.
 Requested convergence on             energy=1.00D-06.
 No special actions if energy rises.

 Cycle   1  Pass 1  IDiag  1:
 E= -78.0667050331693    
 DIIS: error= 1.11D-02 at cycle   1 NSaved=   1.
 NSaved= 1 IEnMin= 1 EnMin= -78.0667050331693     IErMin= 1 ErrMin= 1.11D-02
 ErrMax= 1.11D-02  0.00D+00 EMaxC= 1.00D-01 BMatC= 6.43D-03 BMatP= 6.43D-03
 IDIUse=3 WtCom= 8.89D-01 WtEn= 1.11D-01
 Coeff-Com:  0.100D+01
 Coeff-En:   0.100D+01
 Coeff:      0.100D+01
 Gap=     0.436 Goal=   None    Shift=    0.000
 GapD=    0.436 DampG=2.000 DampE=0.500 DampFc=1.0000 IDamp=-1.
 RMSDP=7.40D-04 MaxDP=2.94D-02              OVMax= 5.79D-03

 Cycle   2  Pass 1  IDiag  1:
 E= -78.0685504290572     Delta-E=       -0.001845395888 Rises=F Damp=F
 DIIS: error= 5.78D-04 at cycle   2 NSaved=   2.
 NSaved= 2 IEnMin= 2 EnMin= -78.0685504290572     IErMin= 2 ErrMin= 5.78D-04
 ErrMax= 5.78D-04  0.00D+00 EMaxC= 1.00D-01 BMatC= 2.99D-05 BMatP= 6.43D-03
 IDIUse=3 WtCom= 9.94D-01 WtEn= 5.78D-03
 Coeff-Com: -0.624D-01 0.106D+01
 Coeff-En:   0.000D+00 0.100D+01
 Coeff:     -0.620D-01 0.106D+01
 Gap=     0.430 Goal=   None    Shift=    0.000
 RMSDP=5.53D-05 MaxDP=2.79D-03 DE=-1.85D-03 OVMax= 8.80D-04

 Cycle   3  Pass 1  IDiag  1:
 E= -78.0685643285215     Delta-E=       -0.000013899464 Rises=F Damp=F
 DIIS: error= 8.70D-05 at cycle   3 NSaved=   3.
 NSaved= 3 IEnMin= 3 EnMin= -78.0685643285215     IErMin= 3 ErrMin= 8.70D-05
 ErrMax= 8.70D-05  0.00D+00 EMaxC= 1.00D-01 BMatC= 2.98D-07 BMatP= 2.99D-05
 IDIUse=1 WtCom= 1.00D+00 WtEn= 0.00D+00
 Coeff-Com: -0.246D-02 0.185D-01 0.984D+00
 Coeff:     -0.246D-02 0.185D-01 0.984D+00
 Gap=     0.430 Goal=   None    Shift=    0.000
 RMSDP=3.28D-06 MaxDP=1.37D-04 DE=-1.39D-05 OVMax= 1.81D-04

 Cycle   4  Pass 1  IDiag  1:
 E= -78.0685645761946     Delta-E=       -0.000000247673 Rises=F Damp=F
 DIIS: error= 2.75D-05 at cycle   4 NSaved=   4.
 NSaved= 4 IEnMin= 4 EnMin= -78.0685645761946     IErMin= 4 ErrMin= 2.75D-05
 ErrMax= 2.75D-05  0.00D+00 EMaxC= 1.00D-01 BMatC= 3.26D-08 BMatP= 2.98D-07
 IDIUse=1 WtCom= 1.00D+00 WtEn= 0.00D+00
 Coeff-Com:  0.163D-02-0.321D-01 0.217D+00 0.814D+00
 Coeff:      0.163D-02-0.321D-01 0.217D+00 0.814D+00
 Gap=     0.430 Goal=   None    Shift=    0.000
 RMSDP=6.45D-07 MaxDP=1.24D-05 DE=-2.48D-07 OVMax= 6.85D-05

 Cycle   5  Pass 1  IDiag  1:
 E= -78.0685646093305     Delta-E=       -0.000000033136 Rises=F Damp=F
 DIIS: error= 2.67D-06 at cycle   5 NSaved=   5.
 NSaved= 5 IEnMin= 5 EnMin= -78.0685646093305     IErMin= 5 ErrMin= 2.67D-06
 ErrMax= 2.67D-06  0.00D+00 EMaxC= 1.00D-01 BMatC= 2.94D-10 BMatP= 3.26D-08
 IDIUse=1 WtCom= 1.00D+00 WtEn= 0.00D+00
 Coeff-Com: -0.225D-03 0.489D-02-0.532D-01-0.122D+00 0.117D+01
 Coeff:     -0.225D-03 0.489D-02-0.532D-01-0.122D+00 0.117D+01
 Gap=     0.430 Goal=   None    Shift=    0.000
 RMSDP=1.72D-07 MaxDP=4.24D-06 DE=-3.31D-08 OVMax= 8.17D-06

 Cycle   6  Pass 1  IDiag  1:
 E= -78.0685646098482     Delta-E=       -0.000000000518 Rises=F Damp=F
 DIIS: error= 4.77D-07 at cycle   6 NSaved=   6.
 NSaved= 6 IEnMin= 6 EnMin= -78.0685646098482     IErMin= 6 ErrMin= 4.77D-07
 ErrMax= 4.77D-07  0.00D+00 EMaxC= 1.00D-01 BMatC= 8.10D-12 BMatP= 2.94D-10
 IDIUse=1 WtCom= 1.00D+00 WtEn= 0.00D+00
 Coeff-Com:  0.205D-04-0.506D-03 0.752D-02 0.141D-01-0.268D+00 0.125D+01
 Coeff:      0.205D-04-0.506D-03 0.752D-02 0.141D-01-0.268D+00 0.125D+01
 Gap=     0.430 Goal=   None    Shift=    0.000
 RMSDP=2.76D-08 MaxDP=7.68D-07 DE=-5.18D-10 OVMax= 2.67D-06

 Cycle   7  Pass 1  IDiag  1:
 E= -78.0685646098717     Delta-E=       -0.000000000023 Rises=F Damp=F
 DIIS: error= 1.38D-07 at cycle   7 NSaved=   7.
 NSaved= 7 IEnMin= 7 EnMin= -78.0685646098717     IErMin= 7 ErrMin= 1.38D-07
 ErrMax= 1.38D-07  0.00D+00 EMaxC= 1.00D-01 BMatC= 3.14D-13 BMatP= 8.10D-12
 IDIUse=1 WtCom= 1.00D+00 WtEn= 0.00D+00
 Coeff-Com:  0.484D-05-0.934D-04 0.653D-03 0.252D-02 0.211D-02-0.236D+00
 Coeff-Com:  0.123D+01
 Coeff:      0.484D-05-0.934D-04 0.653D-03 0.252D-02 0.211D-02-0.236D+00
 Coeff:      0.123D+01
 Gap=     0.430 Goal=   None    Shift=    0.000
 RMSDP=5.36D-09 MaxDP=1.17D-07 DE=-2.34D-11 OVMax= 8.02D-07

 SCF Done:  E(RHF) =  -78.0685646099     A.U. after    7 cycles
            NFock=  7  Conv=0.54D-08     -V/T= 2.0020
 KE= 7.790977018124D+01 PE=-2.478120705547D+02 EE= 5.855036112445D+01
 Leave Link  502 at Mon Jun  1 23:46:22 2020, MaxMem= 12884901888 cpu:              24.6 elap:               1.6
 (Enter /project/qslin/software/g16/l601.exe)
 Copying SCF densities to generalized density rwf, IOpCl= 0 IROHF=0.

 **********************************************************************

            Population analysis using the SCF density.

 **********************************************************************

 Orbital symmetries:
       Occupied  (AG) (B1U) (AG) (B1U) (B2U) (AG) (B3G) (B3U)
       Virtual   (B1U) (AG) (B2U) (B3U) (B2G) (B3G) (AG) (B2G)
                 (B1U) (AG) (B2U) (B1U) (B3G) (B1U) (AG) (B2U)
                 (B3U) (AG) (B2G) (B1G) (B2U) (B1U) (AG) (B3G)
                 (B1U) (B1U) (AU) (B3U) (B3G) (AG) (B2U) (AG) (B3G)
                 (B2G) (B1U) (B3U) (B1U) (B1G) (B2G) (B2U) (B3G)
                 (AG) (B2U) (AU) (B1U) (AG) (B3U) (AG) (B3G) (B1U)
                 (B2U) (B2G) (AG) (B1U) (B2U) (B3G) (B1G) (B3U)
                 (B1U) (AG) (B2U) (B3U) (AU) (AG) (B2G) (B3G) (B3G)
                 (AG) (B1G) (B1U) (B2G) (B3U) (B2U) (B1U) (AU)
                 (B3G) (B1U) (B2U) (AG) (B3G) (B2G) (B1U) (B1G)
                 (AG) (B1U) (AU) (B2U) (B3U) (B2G) (B3G) (B1G)
                 (AG) (B1U) (B3U) (B2G) (AG) (B2U) (B2U) (B1U)
                 (AU) (B3U) (B3G) (AG) (B2U) (B1G) (AG) (AU) (B1U)
                 (B2G) (B3G) (AG) (B3G) (B3U) (B3G) (B1U) (AG)
                 (B2U) (AG) (B1G) (B2G) (B1U) (B2U) (B3U) (B1G)
                 (B1U) (B3U) (B2G) (B3G) (AG) (AU) (B2U) (AU) (AG)
                 (B3U) (B2U) (B1U) (B1G) (B1U) (B2G) (AG) (B3G)
                 (B2G) (B2U) (B3G) (B3U) (B1G) (AU) (B1U) (B3U)
                 (AU) (B3G) (AG) (B1U) (B2G) (B2U) (B1U) (AG) (B2U)
                 (B3G) (B1U) (AG) (B2G) (B3G) (B1U) (B2U) (AG)
                 (B1U) (B3G) (B1U) (AG)
 The electronic state is 1-AG.
 Alpha  occ. eigenvalues --  -11.23269 -11.23098  -1.03270  -0.79165  -0.64128
 Alpha  occ. eigenvalues --   -0.58819  -0.50610  -0.37720
 Alpha virt. eigenvalues --    0.05306   0.06776   0.07331   0.08785   0.08885
 Alpha virt. eigenvalues --    0.09516   0.11538   0.17713   0.18520   0.21438
 Alpha virt. eigenvalues --    0.24784   0.28575   0.30143   0.32792   0.35902
 Alpha virt. eigenvalues --    0.39708   0.43752   0.47554   0.51816   0.53333
 Alpha virt. eigenvalues --    0.55046   0.58337   0.58458   0.62317   0.63593
 Alpha virt. eigenvalues --    0.66964   0.72904   0.73424   0.75104   0.80923
 Alpha virt. eigenvalues --    0.82719   0.90996   0.91271   0.98380   1.10948
 Alpha virt. eigenvalues --    1.15654   1.16805   1.17867   1.18878   1.24243
 Alpha virt. eigenvalues --    1.41586   1.50283   1.50972   1.52769   1.52801
 Alpha virt. eigenvalues --    1.57472   1.62556   1.65721   1.65797   1.67148
 Alpha virt. eigenvalues --    1.72168   1.75663   1.75731   1.77359   1.80316
 Alpha virt. eigenvalues --    1.89588   1.91008   1.92575   2.02246   2.04203
 Alpha virt. eigenvalues --    2.05812   2.07130   2.13279   2.13879   2.16430
 Alpha virt. eigenvalues --    2.21140   2.29501   2.31407   2.35330   2.43728
 Alpha virt. eigenvalues --    2.52092   2.52584   2.63429   2.63757   2.66259
 Alpha virt. eigenvalues --    3.00383   3.01998   3.03086   3.23669   3.43738
 Alpha virt. eigenvalues --    3.44667   3.52344   3.59085   3.62950   3.73799
 Alpha virt. eigenvalues --    3.88806   3.89947   3.94782   3.99770   4.08631
 Alpha virt. eigenvalues --    4.12164   4.12391   4.19648   4.21106   4.28741
 Alpha virt. eigenvalues --    4.29464   4.40118   4.43941   4.48963   4.53253
 Alpha virt. eigenvalues --    4.56084   4.74590   4.75195   4.77893   4.84612
 Alpha virt. eigenvalues --    4.95470   5.01090   5.03269   5.08055   5.08978
 Alpha virt. eigenvalues --    5.11137   5.17563   5.26806   5.32360   5.34928
 Alpha virt. eigenvalues --    5.36128   5.37336   5.47698   5.53790   5.56924
 Alpha virt. eigenvalues --    5.59955   5.76071   5.84108   5.88174   6.00210
 Alpha virt. eigenvalues --    6.05916   6.13918   6.14849   6.23589   6.25212
 Alpha virt. eigenvalues --    6.30511   6.31770   6.31843   6.39311   6.40619
 Alpha virt. eigenvalues --    6.46861   6.53280   6.55893   6.58100   6.67428
 Alpha virt. eigenvalues --    6.67803   7.02576   7.12227   7.16493   7.20444
 Alpha virt. eigenvalues --    7.30435   7.35532   7.37278   7.44351   7.47613
 Alpha virt. eigenvalues --    7.54707   7.57709   7.63445   7.72034   7.75738
 Alpha virt. eigenvalues --    7.88766   8.05710   8.13759   8.74090   8.75464
 Alpha virt. eigenvalues --    8.77513   9.00535   9.17364   9.57076  10.22225
 Alpha virt. eigenvalues --   10.26325  10.51119  10.59339  23.38264  23.70438
          Condensed to atoms (all electrons):
               1          2          3          4          5          6
     1  C    4.741322   0.678523   0.427585   0.427585  -0.033768  -0.033768
     2  C    0.678523   4.741322  -0.033768  -0.033768   0.427585   0.427585
     3  H    0.427585  -0.033768   0.540916  -0.036578   0.005213  -0.007108
     4  H    0.427585  -0.033768  -0.036578   0.540916  -0.007108   0.005213
     5  H   -0.033768   0.427585   0.005213  -0.007108   0.540916  -0.036578
     6  H   -0.033768   0.427585  -0.007108   0.005213  -0.036578   0.540916
 Mulliken charges:
               1
     1  C   -0.207480
     2  C   -0.207480
     3  H    0.103740
     4  H    0.103740
     5  H    0.103740
     6  H    0.103740
 Sum of Mulliken charges =  -0.00000
 Mulliken charges with hydrogens summed into heavy atoms:
               1
     1  C   -0.000000
     2  C   -0.000000
 Electronic spatial extent (au):  <R**2>=             83.4817
 Charge=              0.0000 electrons
 Dipole moment (field-independent basis, Debye):
    X=             -0.0000    Y=             -0.0000    Z=              0.0000  Tot=              0.0000
 Quadrupole moment (field-independent basis, Debye-Ang):
   XX=            -16.1305   YY=            -12.4086   ZZ=            -12.1464
   XY=              0.0000   XZ=             -0.0000   YZ=              0.0000
 Traceless Quadrupole moment (field-independent basis, Debye-Ang):
   XX=             -2.5687   YY=              1.1532   ZZ=              1.4155
   XY=              0.0000   XZ=             -0.0000   YZ=              0.0000
 Octapole moment (field-independent basis, Debye-Ang**2):
  XXX=             -0.0000  YYY=             -0.0000  ZZZ=             -0.0000  XYY=             -0.0000
  XXY=             -0.0000  XXZ=             -0.0000  XZZ=             -0.0000  YZZ=              0.0000
  YYZ=             -0.0000  XYZ=             -0.0000
 Hexadecapole moment (field-independent basis, Debye-Ang**3):
 XXXX=            -21.2123 YYYY=            -27.0596 ZZZZ=            -68.5607 XXXY=             -0.0000
 XXXZ=              0.0000 YYYX=             -0.0000 YYYZ=             -0.0000 ZZZX=              0.0000
 ZZZY=              0.0000 XXYY=             -8.8497 XXZZ=            -15.9280 YYZZ=            -13.1002
 XXYZ=             -0.0000 YYXZ=              0.0000 ZZXY=              0.0000
 N-N= 3.328337463912D+01 E-N=-2.478120705325D+02  KE= 7.790977018124D+01
 Symmetry AG   KE= 3.754592349250D+01
 Symmetry B1G  KE= 1.030023744271D-31
 Symmetry B2G  KE=-1.991921333577D-20
 Symmetry B3G  KE= 2.086610713261D+00
 Symmetry AU   KE=-3.164842733614D-21
 Symmetry B1U  KE= 3.451966258304D+01
 Symmetry B2U  KE= 1.851945381689D+00
 Symmetry B3U  KE= 1.905628010754D+00
 No NMR shielding tensors so no spin-rotation constants.
 Leave Link  601 at Mon Jun  1 23:46:26 2020, MaxMem= 12884901888 cpu:              54.6 elap:               4.2
 (Enter /project/qslin/software/g16/l9999.exe)
 1\1\GINC-N0020\SP\RHF\GFHFB4\C2H4\QSLIN\01-Jun-2020\0\\#p Geom=AllChec
 k Guess=Read HF/GFHFB4\\Hydrogen molecule G4(MP2)-6X calculation\\0,1\
 C,0,-0.6671880125,0.,0.\C,0,0.6671880125,0.,0.\H,0,-1.2382940211,0.926
 2310932,0.\H,0,-1.2382940211,-0.9262310932,0.\H,0,1.2382940211,-0.9262
 310932,0.\H,0,1.2382940211,0.9262310932,0.\\Version=ES64L-G16RevA.03\S
 tate=1-AG\HF=-78.0685646\RMSD=5.364e-09\Dipole=0.,0.,0.\Quadrupole=1.0
 523666,0.8574014,-1.909768,0.,0.,0.\PG=D02H [C2"(C1.C1),SG(H4)]\\@


 ORIGINALITY CONSISTS NOT IN SAYING WHAT NO ONE HAS EVER SAID BEFORE, 
 BUT IN SAYING WHAT YOU THINK YOUR SELF.

                                    -- JAMES F. STEPHEN
 Job cpu time:       0 days  0 hours  1 minutes 35.1 seconds.
 Elapsed time:       0 days  0 hours  0 minutes  7.1 seconds.
 File lengths (MBytes):  RWF=     15 Int=      0 D2E=      0 Chk=      3 Scr=      1
 Normal termination of Gaussian 16 at Mon Jun  1 23:46:27 2020.
DA-R2.log                                
   Temperature (K)   373.15
    Pressure (atm)     1.00
   NImag     0
   E_ele     -78.49999374
   H(0K)     -78.44999544
    H(T)     -78.44464770
    U(T)     -78.44582940
    G(T)     -78.47727980

